 
        ______________________________________
       |                                      |
       |           ==================         |
       |                 x T B                |
       |           ==================         |
       |               S. Grimme              |
       |        Universitaet Bonn, MCTC       |
       |         2015-18, Version 5.8.1       |
       |      Sun Jun  3 17:06:45 CEST 2018   |
       |______________________________________|
 
        This code comes without any warranty
        for non-commercial, academia use only.
        Preliminary GFN2 test version.
        Cite GFN-xTB work as:
        S. Grimme, C. Bannwarth, P. Shushkov
        JCTC, 13 (2017) 1989-2009
        for GFN2:
        C. Bannwarth, S. Ehlert, S. Grimme
        to be published.
        sTDA-xTB:
        S. Grimme  &  C. Bannwarth, JCP 145 (2016) 054103
        in the mass-spec context additionally:
        V. Asgeirsson, C.Bauer, S. Grimme, Chem. Sci. 8 (2017) 4879
 
        with help from
        P. Shushkov, G. Brandenburg, S. Dohm, J. Pisarek,
        F. März, M. Checinski, S. Ehrlich, S. Spicher, 
        P. Pracht, E. Caldeweyher, S. Ehlert, and C. Bannwarth.
 
        usage        :
        xtb <coord_file> [options]
        where <coord_file> is a valid file of TM)
        (*coord, Bohr) or xmol (*xyz, Angstroem)
        format.

        options:
        -chrg <int>   : molecular charge
        -uhf  <int>   : # of unpaired electrons(=2*S)
        -nox          : skip second, extended part in sTDA-xTB
        -pop          : do population analysis
                      : (default for -nox)
        -mowr <real>  : cut MO write above (def.3 Eh)
        -molden       : write formatted molden file
        -parx <file>  : read parameters for sTDA-xTB
                        calc (def:~/.param_stda2.xtb)
        -parv <file>  : read parameters for vTB part in
                        sTDA-xTB (def: ~/.param_stda1.xtb)
        -xtemp <real> : el. temp for xTB (def. 0 K)
        -etemp <real> : el. temp for GFN (def. 300 K)
        -fod          : calculate the FOD and write
                        molden.input file with
                        appropriate occupations
                        for plotting. Def. T=12500 K
 
        -gfn1         : use GFN-xTB
        -gfn2         : use GFN2-xTB
        -gfn2d3       : GFN2-xTB with D3 instead of D4
        -grad         : GFNn-xTB gradient
        -acc <real>   : GFNn-xTB accuracy (def. 1.0)
        -opt [level]  : optimize at GFNn-xTB
                      : level=crude,vloose,loose,
                      :       tight,vtight
        -hess         : compute Hessian at GFNn-xTB
        -ohess        : optimize and compute Hessian
        -omd          : optimize and do MD
        -siman        : conformational search
        -screen       : opt. loop over ensemble
        -gmd          : annealed MD for GMD procedure
        -modef        : vib mode following
        -gbsa [string1] [string2]
                        use GBSA implicit solvent
                        for solvent [string1] and
                        solvation state [string2]=
                        reference, bar1M (default=1M)
        additional GFN/opt/MD/siman options read from
        $XTBHOME/.xtbrc or $set in coordinate file
 
       spin and charge state information can be on:
       <.CHRG> (charge) and <.UHF> (=nalpha-nbeta)
       -uhf and -chrg override the file info.
       useful machine settings:
       setenv MKL_NUM_THREADS <NCORE_ON_YOUR_MACHINE>
       setenv OMP_STACKSIZE 500m
       limit stacksize unlimited
 
       total energies in Eh, gaps/HL energies in eV
       please read REVISION and HOWTO files carefully
         180  days left until this code expires
 =============================
  # OMP threads =           8
 =============================
 
 xtbhome directory:/home/karl/Software/xtb2/
 
 
 name of molecule           :
 comment line               :
 number of atoms            :  3500
 number of electrons        :  8500
 charge                     :  0
 spin                       : 0.0
 first test random number   :  0.1280
 
 -----------------------------------------
      charge density (VTB) calculation
 -----------------------------------------
 
      method parameters     
 k(s)        :  1.8000
 k(p)        :  2.8350
 k(d)        :  2.0860
 k(f)        :  2.0000
 Tscal       :  0.3300
 Gscal       :  0.3910
 fpol        :  1.0000
 Zcnf        :  0.6500
 Zqf         :  0.0000
 kcn         :  0.3000
 kEN1        : -0.5900
 wllscal     :  2.6000
 
     -------------------------
     ! NO SOLVENT MODEL USED !
     -------------------------
 
 doing EN charges ...
 sum q :  0.8770762D-14
 point charge moment (au)
     X       Y       Z   
   3.2617   2.3017   2.4936  total (Debye):   11.964
 
            Z      q(EN)   CN      Cart. coordinates
     1  C   4.0   -0.25    4.04    21.82633    16.08157    24.05621
     2  C   4.0    0.22    3.02    22.63892    13.66272    25.36012
     3  O   6.0   -0.13    1.10    22.46884    13.39816    27.59000
     4  O   6.0   -0.11    1.11    23.56488    12.07535    23.92393
     5  H   1.0    0.10    1.01    19.84212    16.06267    23.90503
     6  H   1.0    0.09    1.00    22.35546    17.82012    24.94438
     7  H   1.0    0.06    0.99    22.88458    16.04377    22.16649
     8  C   4.0   -0.22    4.01    46.78961    60.58461    25.98373
     9  C   4.0    0.18    3.01    45.22114    61.68254    23.81055
    10  O   6.0   -0.10    1.07    43.29362    62.83528    24.41526
    11  O   6.0   -0.08    1.04    45.76916    61.38019    21.46729
    12  H   1.0    0.08    1.00    48.79272    60.83028    25.53020
    13  H   1.0    0.06    0.99    46.48726    61.47467    27.91125
    14  H   1.0    0.07    1.00    46.41167    58.54371    26.19160
    15  C   4.0   -0.24    4.02    23.47040     2.77790    49.49192
    16  C   4.0    0.19    3.01    25.92704     1.30391    49.00059
    17  O   6.0   -0.10    1.05    28.02464     2.21098    49.43523
    18  O   6.0   -0.09    1.06    25.60579    -0.75778    47.84786
    19  H   1.0    0.09    1.00    22.09090     2.13539    48.16911
    20  H   1.0    0.06    0.99    22.65781     2.51334    51.45724
    21  H   1.0    0.08    1.00    23.77275     4.74321    48.92500
    22  C   4.0   -0.24    4.04    34.69537     1.00155    50.51237
    23  C   4.0    0.20    3.02    35.82920    -0.75778    48.62265
    24  O   6.0   -0.11    1.17    36.45281     0.18897    46.56285
    25  O   6.0   -0.10    1.06    36.15046    -2.98766    49.20846
    26  H   1.0    0.07    0.99    32.57888     0.98266    50.62576
    27  H   1.0    0.09    1.00    35.31898     0.52912    52.36431
    28  H   1.0    0.07    1.00    35.26229     3.00466    50.36120
    29  C   4.0   -0.23    4.02     1.51178    46.22270    19.99330
    30  C   4.0    0.20    3.01    -0.88628    46.39277    21.63736
    31  O   6.0   -0.10    1.05    -1.11305    47.79117    23.47040
    32  O   6.0   -0.09    1.06    -2.62483    44.97548    20.90037
    33  H   1.0    0.08    1.00     1.34171    47.58330    18.48152
    34  H   1.0    0.07    0.99     3.34481    46.43057    21.01375
    35  H   1.0    0.07    0.99     2.04090    44.37077    19.12403
    36  C   4.0   -0.26    4.03    26.34278     2.98577    12.88793
    37  C   4.0    0.17    3.01    24.66092     2.87238    10.54467
    38  O   6.0   -0.09    1.05    22.35546     3.26923    10.99821
    39  O   6.0   -0.08    1.04    25.71917     2.49444     8.39038
    40  H   1.0    0.10    1.00    25.98373     4.66762    13.90838
    41  H   1.0    0.08    1.00    25.87035     1.30391    13.98397
    42  H   1.0    0.08    1.00    28.32699     2.81569    12.33991
    43  C   4.0   -0.25    4.06    23.58378     0.71810    35.54575
    44  C   4.0    0.22    3.02    23.65937     2.51334    37.70003
    45  O   6.0   -0.11    1.06    23.24363     1.75745    39.81653
    46  O   6.0   -0.11    1.08    24.13180     4.66762    37.05753
    47  H   1.0    0.08    1.00    25.36012     0.69920    34.52529
    48  H   1.0    0.09    1.00    23.56488    -1.23021    36.13156
    49  H   1.0    0.08    1.00    21.92082     1.17163    34.37412
    50  C   4.0   -0.27    4.06     1.26612    13.17139    58.39253
    51  C   4.0    0.20    3.02    -0.43275    11.07379    59.14842
    52  O   6.0   -0.10    1.07    -2.66262    11.69740    59.14842
    53  O   6.0   -0.09    1.05     0.47243     8.93840    59.58495
    54  H   1.0    0.07    1.00     3.23143    12.66116    58.90276
    55  H   1.0    0.11    1.01     0.98266    13.36036    56.46501
    56  H   1.0    0.08    1.00     0.77479    15.00442    59.24291
    57  C   4.0   -0.25    4.01    58.39253    24.62313    33.65602
    58  C   4.0    0.17    3.01    59.39220    22.65781    35.56464
    59  O   6.0   -0.08    1.06    58.84418    23.13025    37.90790
    60  O   6.0   -0.10    1.04    60.65831    20.80588    34.94103
    61  H   1.0    0.07    0.99    56.29494    24.81210    33.58043
    62  H   1.0    0.07    1.00    59.12764    26.51286    34.22294
    63  H   1.0    0.11    1.01    59.25992    24.07511    31.99306
    64  C   4.0   -0.27    4.05    45.92034    48.32029     1.49288
    65  C   4.0    0.21    3.02    47.88566    46.84631     0.05669
    66  O   6.0   -0.10    1.06    47.73448    44.54084    -0.20976
    67  O   6.0   -0.12    1.19    49.47303    48.09353    -1.06014
    68  H   1.0    0.08    1.00    45.93924    50.34230     1.11494
    69  H   1.0    0.09    1.00    44.06841    47.86676     0.77479
    70  H   1.0    0.10    1.01    46.18490    47.96124     3.43930
    71  C   4.0   -0.25    4.03    48.79272    46.86520    46.73292
    72  C   4.0    0.19    3.01    46.39277    45.58019    45.65578
    73  O   6.0   -0.09    1.12    46.58174    43.19914    45.42901
    74  O   6.0   -0.11    1.12    44.59753    46.82741    44.89989
    75  H   1.0    0.08    1.00    50.62576    46.16600    46.05262
    76  H   1.0    0.07    1.00    48.58485    48.94390    46.58174
    77  H   1.0    0.10    1.01    48.96280    46.27939    48.62265
    78  C   4.0   -0.24    4.02    56.95634    11.41394    24.45305
    79  C   4.0    0.18    3.01    59.54337    10.46908    25.26564
    80  O   6.0   -0.08    1.07    60.35596    11.22497    27.41992
    81  O   6.0   -0.09    1.05    60.77170     9.08958    23.81055
    82  H   1.0    0.09    1.00    55.38787    10.14783    24.45305
    83  H   1.0    0.08    1.00    56.97524    12.01866    22.48774
    84  H   1.0    0.07    0.99    56.46501    13.19029    25.51130
    85  C   4.0   -0.23    4.03    57.20200    47.54550    36.60399
    86  C   4.0    0.19    3.02    55.36897    49.18957    35.24339
    87  O   6.0   -0.09    1.06    56.27604    51.04150    34.10955
    88  O   6.0   -0.09    1.06    53.06350    48.69824    35.22449
    89  H   1.0    0.08    1.00    56.16266    46.94079    38.28585
    90  H   1.0    0.07    1.00    57.57995    45.86365    35.37567
    91  H   1.0    0.07    1.00    58.97646    48.47147    37.18981
    92  C   4.0   -0.23    4.04    24.11290    49.13287    47.14866
    93  C   4.0    0.18    3.02    22.12869    50.81473    48.05573
    94  O   6.0   -0.09    1.11    19.84212    50.22892    47.52661
    95  O   6.0   -0.09    1.06    22.60112    52.43990    49.71869
    96  H   1.0    0.07    1.00    25.49240    48.60375    48.64155
    97  H   1.0    0.07    1.00    23.16804    47.29984    46.63844
    98  H   1.0    0.08    1.00    25.07666    50.02105    45.56129
    99  C   4.0   -0.23    4.03     9.97775    26.26719    58.20356
   100  C   4.0    0.17    3.01     9.31635    24.79320    60.54871
   101  O   6.0   -0.10    1.12     9.18407    22.43105    60.30304
   102  O   6.0   -0.08    1.04     9.10848    26.00263    62.64630
   103  H   1.0    0.08    1.00     9.41084    28.25140    58.35474
   104  H   1.0    0.07    0.99    12.09425    26.21050    57.97679
   105  H   1.0    0.08    1.00     9.08958    25.24674    56.65398
   106  C   4.0   -0.26    4.03    43.52039    49.39744    24.16959
   107  C   4.0    0.17    3.01    44.76761    51.64621    25.49240
   108  O   6.0   -0.08    1.05    45.20224    51.66511    27.85456
   109  O   6.0   -0.09    1.06    45.80696    53.27137    24.11290
   110  H   1.0    0.09    1.00    44.40856    47.62109    24.52864
   111  H   1.0    0.09    1.00    41.57397    49.15177    24.66092
   112  H   1.0    0.08    1.00    43.89833    49.69979    22.14759
   113  C   4.0   -0.27    4.02    52.96902    10.92262    36.84966
   114  C   4.0    0.20    3.01    55.86030    11.48953    37.11422
   115  O   6.0   -0.09    1.05    56.74847    11.92417    39.24961
   116  O   6.0   -0.10    1.06    57.20200    11.47064    35.22449
   117  H   1.0    0.09    1.00    51.85408    12.60447    36.75517
   118  H   1.0    0.06    0.99    52.57218     9.90216    34.99772
   119  H   1.0    0.12    1.01    52.38320     9.90216    38.38033
   120  C   4.0   -0.26    4.03    35.88590    25.77586    26.24829
   121  C   4.0    0.17    3.01    33.42925    26.17270    27.72228
   122  O   6.0   -0.07    1.05    32.27652    24.09401    28.40258
   123  O   6.0   -0.10    1.05    32.59777    28.34589    27.96794
   124  H   1.0    0.10    1.01    35.41346    25.26564    24.37746
   125  H   1.0    0.07    1.00    37.18981    27.41992    26.21050
   126  H   1.0    0.09    1.00    36.88745    24.18849    27.00418
   127  C   4.0   -0.22    4.00    11.96197    13.37926    45.78806
   128  C   4.0    0.19    3.00    10.20452    10.99821    46.07152
   129  O   6.0   -0.10    1.05    10.96041     8.91951    46.75182
   130  O   6.0   -0.09    1.06     7.91795    11.35725    45.48570
   131  H   1.0    0.07    0.99    11.37615    14.55089    44.12510
   132  H   1.0    0.07    0.99    11.90527    14.68317    47.45102
   133  H   1.0    0.08    1.00    13.88949    12.79344    45.42901
   134  C   4.0   -0.26    4.04    47.71558    37.60555     0.56692
   135  C   4.0    0.22    3.01    49.54861    35.54575    -0.39873
   136  O   6.0   -0.11    1.06    51.75959    35.88590    -0.02079
   137  O   6.0   -0.10    1.06    48.58485    33.88279    -1.68375
   138  H   1.0    0.10    1.00    46.14711    36.75517     1.45509
   139  H   1.0    0.09    1.00    48.73603    38.83387     1.83303
   140  H   1.0    0.08    1.00    47.05418    38.83387    -0.96565
   141  C   4.0   -0.27    4.04    31.46394    23.88614    52.00526
   142  C   4.0    0.19    3.02    33.97727    23.62157    50.73914
   143  O   6.0   -0.09    1.07    34.50640    25.34122    49.17067
   144  O   6.0   -0.10    1.05    35.35677    21.78854    51.11709
   145  H   1.0    0.10    1.00    29.91436    23.45150    50.87142
   146  H   1.0    0.08    1.00    31.25607    22.86568    53.76270
   147  H   1.0    0.07    1.00    31.36945    25.92704    52.51548
   148  C   4.0   -0.29    4.05    36.49061    33.84499     2.70231
   149  C   4.0    0.18    3.02    36.37722    35.22449     0.26456
   150  O   6.0   -0.08    1.06    36.18825    37.60555     0.37795
   151  O   6.0   -0.09    1.05    36.30164    34.01507    -1.77823
   152  H   1.0    0.09    1.00    38.28585    33.01351     3.17474
   153  H   1.0    0.10    1.01    36.03707    35.13001     4.13850
   154  H   1.0    0.10    1.01    34.99772    32.54108     2.47554
   155  C   4.0   -0.31    4.05    46.10931    22.88458    21.80744
   156  C   4.0    0.18    3.02    46.48726    25.26564    23.30032
   157  O   6.0   -0.09    1.06    47.79117    26.96639    22.26097
   158  O   6.0   -0.10    1.16    45.42901    25.53020    25.41681
   159  H   1.0    0.10    1.00    44.74871    23.16804    20.37125
   160  H   1.0    0.10    1.01    47.77227    22.41215    20.86257
   161  H   1.0    0.10    1.01    45.92034    21.48618    23.20583
   162  C   4.0   -0.26    4.03    55.42566    11.45174    47.11087
   163  C   4.0    0.21    3.01    57.48546    11.41394    49.22736
   164  O   6.0   -0.11    1.06    57.65554     9.44863    50.41789
   165  O   6.0   -0.10    1.06    58.48702    13.37926    49.92656
   166  H   1.0    0.09    1.01    53.97057    10.28011    47.84786
   167  H   1.0    0.08    1.00    54.83985    13.39816    46.71403
   168  H   1.0    0.08    1.00    56.12486    10.69585    45.33453
   169  C   4.0   -0.23    4.02     0.49133    61.00035    25.32233
   170  C   4.0    0.17    3.01    -1.79335    59.80983    24.07511
   171  O   6.0   -0.07    1.04    -3.72087    59.33739    25.49240
   172  O   6.0   -0.10    1.10    -1.79335    59.46968    21.73185
   173  H   1.0    0.09    1.00     0.41574    63.00535    25.26564
   174  H   1.0    0.06    0.99     0.39684    60.64131    27.43882
   175  H   1.0    0.07    1.00     2.24877    60.24446    24.45305
   176  C   4.0   -0.24    4.02    37.37878     7.99354    59.12952
   177  C   4.0    0.17    3.01    35.67803    10.29901    58.99724
   178  O   6.0   -0.08    1.05    33.42925    10.01555    59.79282
   179  O   6.0   -0.08    1.05    36.50951    12.45329    58.33584
   180  H   1.0    0.08    1.00    39.30630     8.46597    59.67944
   181  H   1.0    0.08    1.00    36.64179     6.67073    60.54871
   182  H   1.0    0.08    1.00    37.35988     7.16206    57.22090
   183  C   4.0   -0.24    4.04    34.52529    60.39564    21.01375
   184  C   4.0    0.19    3.01    33.22138    59.86652    23.47040
   185  O   6.0   -0.09    1.06    32.74895    61.77703    24.75541
   186  O   6.0   -0.09    1.06    32.61667    57.65554    23.99952
   187  H   1.0    0.08    1.00    35.22449    58.78937    19.91771
   188  H   1.0    0.09    1.00    33.14579    61.13263    19.74764
   189  H   1.0    0.06    0.99    36.13156    61.79593    21.20273
   190  C   4.0   -0.27    4.05    47.24315    38.00239    20.76809
   191  C   4.0    0.20    3.02    47.01638    40.13778    22.62002
   192  O   6.0   -0.12    1.22    46.48726    39.74094    24.86879
   193  O   6.0   -0.10    1.09    47.20535    42.27317    21.69405
   194  H   1.0    0.09    1.00    46.37387    38.58820    19.02954
   195  H   1.0    0.09    1.00    46.22270    36.41502    21.44839
   196  H   1.0    0.08    1.00    49.20846    37.52996    20.46573
   197  C   4.0   -0.28    4.04    35.01662    41.10154    24.16959
   198  C   4.0    0.18    3.02    34.14735    38.73938    22.77120
   199  O   6.0   -0.09    1.08    31.99306    37.81342    23.18694
   200  O   6.0   -0.10    1.13    35.81031    37.56775    21.52398
   201  H   1.0    0.10    1.01    36.73627    40.81808    25.09556
   202  H   1.0    0.08    1.00    34.94103    42.84009    23.03576
   203  H   1.0    0.09    1.00    33.86389    41.38500    25.79476
   204  C   4.0   -0.23    4.03    11.05490    37.66224    41.98971
   205  C   4.0    0.23    3.02     9.71319    36.09377    44.03061
   206  O   6.0   -0.12    1.12    11.05490    35.16780    45.65578
   207  O   6.0   -0.13    1.17     7.44552    35.82920    43.95503
   208  H   1.0    0.08    1.00    11.37615    36.50951    40.28896
   209  H   1.0    0.08    1.00     9.59981    39.06064    41.47948
   210  H   1.0    0.08    1.00    12.90683    38.34254    42.63222
   211  C   4.0   -0.24    4.04    33.48594    27.77897    36.62289
   212  C   4.0    0.19    3.02    32.08755    26.55065    38.70159
   213  O   6.0   -0.11    1.15    30.25451    25.15225    38.24805
   214  O   6.0   -0.09    1.07    32.95682    26.75852    40.89367
   215  H   1.0    0.07    1.00    35.37567    26.87190    36.33943
   216  H   1.0    0.07    1.00    32.37101    27.68449    34.84655
   217  H   1.0    0.09    1.01    33.33477    29.78208    36.88745
   218  C   4.0   -0.24    4.05     9.12738    23.01686    25.15225
   219  C   4.0    0.20    3.02    11.20607    21.29721    25.92704
   220  O   6.0   -0.10    1.06    12.98242    22.07200    27.23095
   221  O   6.0   -0.10    1.07    11.07379    19.12403    25.03887
   222  H   1.0    0.08    1.00     9.52422    23.82944    23.31922
   223  H   1.0    0.08    1.00     7.31324    22.03420    24.90659
   224  H   1.0    0.07    1.00     8.93840    24.67982    26.41837
   225  C   4.0   -0.30    4.03    51.77849    34.35522    13.34147
   226  C   4.0    0.21    3.01    49.01949    34.43081    12.47219
   227  O   6.0   -0.11    1.15    48.47147    33.37256    10.45018
   228  O   6.0   -0.12    1.15    47.48881    35.64023    13.71941
   229  H   1.0    0.08    1.00    51.75959    34.44970    15.42016
   230  H   1.0    0.07    1.00    52.70446    32.48439    13.09580
   231  H   1.0    0.14    1.01    52.95012    35.73472    12.88793
   232  C   4.0   -0.24    4.04    48.60375    49.18957    10.82813
   233  C   4.0    0.20    3.02    46.01483    48.66044     9.97775
   234  O   6.0   -0.09    1.07    45.73137    47.46992     7.93685
   235  O   6.0   -0.11    1.07    44.23848    49.62420    11.07379
   236  H   1.0    0.08    1.00    48.92500    48.03683    12.50999
   237  H   1.0    0.07    1.00    49.94546    48.67934     9.29745
   238  H   1.0    0.08    1.00    48.73603    51.23047    11.16828
   239  C   4.0   -0.31    4.04    31.16158    48.39588     0.49133
   240  C   4.0    0.18    3.01    28.38368    48.22581    -0.05858
   241  O   6.0   -0.09    1.06    27.70338    49.05729    -2.15618
   242  O   6.0   -0.08    1.05    26.89080    47.11087     1.47399
   243  H   1.0    0.13    1.01    32.10644    47.82896    -1.06014
   244  H   1.0    0.07    1.00    31.72850    50.39899     0.73699
   245  H   1.0    0.10    1.00    31.76629    47.56440     2.19208
   246  C   4.0   -0.26    4.03    13.02021     0.66140    11.54623
   247  C   4.0    0.17    3.01    13.45485     3.09915    10.03444
   248  O   6.0   -0.10    1.05    13.19029     5.12116    11.20607
   249  O   6.0   -0.08    1.05    14.02177     2.92908     7.69118
   250  H   1.0    0.10    1.00    14.70207    -0.41763    11.58402
   251  H   1.0    0.08    1.00    12.60447     1.20942    13.51154
   252  H   1.0    0.08    1.00    11.47064    -0.47432    10.84703
   253  C   4.0   -0.25    4.04    14.41861    12.75565    14.05956
   254  C   4.0    0.19    3.02    13.79500    14.77766    12.18873
   255  O   6.0   -0.08    1.07    14.32412    17.06423    12.75565
   256  O   6.0   -0.12    1.20    12.45329    14.17294    10.37460
   257  H   1.0    0.09    1.01    13.87059    13.51154    15.85480
   258  H   1.0    0.08    1.00    13.15249    11.16828    13.75720
   259  H   1.0    0.07    0.99    16.45951    12.18873    14.05956
   260  C   4.0   -0.24    4.04    35.69692    31.74740    10.09114
   261  C   4.0    0.19    3.02    34.73316    34.29853    10.90372
   262  O   6.0   -0.10    1.16    36.33943    36.03707    11.05490
   263  O   6.0   -0.10    1.08    32.40880    34.46860    11.33836
   264  H   1.0    0.09    1.00    37.45437    31.91747     9.07068
   265  H   1.0    0.07    0.99    35.88590    30.27341    11.58402
   266  H   1.0    0.08    1.00    34.67647    30.97261     8.46597
   267  C   4.0   -0.29    4.06    18.78388    50.55017    27.93015
   268  C   4.0    0.21    3.03    19.95551    51.32496    25.54909
   269  O   6.0   -0.10    1.11    22.22318    50.85253    25.22784
   270  O   6.0   -0.11    1.08    18.65160    52.13754    23.84834
   271  H   1.0    0.10    1.01    16.87525    51.09819    27.96794
   272  H   1.0    0.11    1.00    18.55711    48.66044    28.42148
   273  H   1.0    0.08    1.00    19.91771    51.26827    29.51752
   274  C   4.0   -0.25    4.04    20.04999    24.77431    48.67934
   275  C   4.0    0.19    3.02    17.74453    26.17270    47.79117
   276  O   6.0   -0.10    1.14    15.98708    26.47506    49.34074
   277  O   6.0   -0.10    1.06    17.65004    26.92859    45.58019
   278  H   1.0    0.08    1.00    21.42949    24.77431    47.12977
   279  H   1.0    0.07    1.00    20.82478    25.73807    50.36120
   280  H   1.0    0.09    1.00    19.57756    22.84679    49.00059
   281  C   4.0   -0.23    4.03     2.00311    26.66403    58.63820
   282  C   4.0    0.18    3.01     1.34171    25.28453    56.25714
   283  O   6.0   -0.09    1.06     2.83459    25.17115    54.44300
   284  O   6.0   -0.09    1.06    -0.79180    24.24518    56.20045
   285  H   1.0    0.06    0.99     1.85193    28.78053    58.39253
   286  H   1.0    0.09    1.00     0.69920    26.13491    60.11407
   287  H   1.0    0.08    1.00     3.89284    26.05932    59.22401
   288  C   4.0   -0.24    4.03    55.76581    22.50664    48.52816
   289  C   4.0    0.17    3.01    57.82561    23.86724    47.03528
   290  O   6.0   -0.09    1.05    57.57995    26.17270    46.63844
   291  O   6.0   -0.08    1.05    59.60007    22.50664    46.05262
   292  H   1.0    0.09    1.00    56.38942    22.16649    50.43679
   293  H   1.0    0.08    1.00    53.91388    23.35701    48.15022
   294  H   1.0    0.08    1.00    55.72802    20.57912    47.73448
   295  C   4.0   -0.26    4.05    24.64203    19.70984    51.04150
   296  C   4.0    0.17    3.02    23.50819    17.12092    51.13598
   297  O   6.0   -0.10    1.14    21.25942    17.13981    50.39899
   298  O   6.0   -0.08    1.04    24.88769    15.26899    51.89187
   299  H   1.0    0.09    1.00    23.35701    21.27831    51.21157
   300  H   1.0    0.09    1.00    25.85145    19.93661    52.66666
   301  H   1.0    0.08    1.00    25.71917    19.80433    49.28405
   302  C   4.0   -0.25    4.02     0.09449    34.35522    45.99593
   303  C   4.0    0.18    3.01    -2.73821    34.71427    45.59909
   304  O   6.0   -0.10    1.24    -3.60749    34.82765    43.35031
   305  O   6.0   -0.09    1.05    -4.13661    34.35522    47.46992
   306  H   1.0    0.06    0.99     0.85038    33.14579    44.38966
   307  H   1.0    0.07    1.00     0.75589    36.33943    46.12821
   308  H   1.0    0.11    1.01     0.37795    33.31587    47.63999
   309  C   4.0   -0.28    4.03     1.28501    48.15022     9.22186
   310  C   4.0    0.17    3.00    -1.20753    49.01949    10.48798
   311  O   6.0   -0.07    1.04    -3.24844    48.13132     9.48642
   312  O   6.0   -0.09    1.04    -0.98077    50.38009    12.39660
   313  H   1.0    0.10    1.01     2.72121    48.28250    10.56357
   314  H   1.0    0.09    1.00     1.17163    46.31718     8.37149
   315  H   1.0    0.08    1.00     1.73855    49.35964     7.63449
   316  C   4.0   -0.22    4.03    40.04329    21.80744    13.07690
   317  C   4.0    0.22    3.02    40.61021    20.08779    10.88482
   318  O   6.0   -0.10    1.07    39.60866    20.29566     8.76833
   319  O   6.0   -0.14    1.38    42.12199    18.38703    11.20607
   320  H   1.0    0.07    0.99    38.15357    21.27831    13.90838
   321  H   1.0    0.07    1.00    41.34720    21.61846    14.70207
   322  H   1.0    0.08    1.00    39.81653    23.82944    12.64227
   323  C   4.0   -0.25    4.04     9.37304    50.28561    47.65889
   324  C   4.0    0.20    3.02     9.48642    50.75804    44.86209
   325  O   6.0   -0.10    1.11     9.44863    48.96280    43.29362
   326  O   6.0   -0.12    1.15     9.80768    52.95012    44.21959
   327  H   1.0    0.09    1.01     9.14627    52.08085    48.56596
   328  H   1.0    0.06    0.99     7.52111    49.26516    48.01794
   329  H   1.0    0.09    1.00    11.01710    49.37854    48.41478
   330  C   4.0   -0.23    4.06     7.76677    25.77586    18.29255
   331  C   4.0    0.20    3.03    10.24231    27.04198    18.08468
   332  O   6.0   -0.13    1.43    11.01710    27.94905    20.10668
   333  O   6.0   -0.10    1.14    11.26277    27.04198    15.93039
   334  H   1.0    0.07    1.00     6.87860    26.43727    20.08779
   335  H   1.0    0.07    1.00     6.57625    26.24829    16.62959
   336  H   1.0    0.08    1.00     7.76677    23.73496    18.38703
   337  C   4.0   -0.21    4.02    12.11314     1.51178    47.09197
   338  C   4.0    0.18    3.01    14.79655     1.43619    48.15022
   339  O   6.0   -0.09    1.04    15.21229     0.34015    50.19112
   340  O   6.0   -0.09    1.06    16.28944     2.68341    46.75182
   341  H   1.0    0.07    1.00    11.05490     0.05669    48.15022
   342  H   1.0    0.06    0.99    10.97931     3.32592    47.43212
   343  H   1.0    0.07    1.00    11.81079     1.20942    45.05107
   344  C   4.0   -0.23    4.03     6.51955    59.69644    21.78854
   345  C   4.0    0.22    3.01     9.12738    60.49013    20.71140
   346  O   6.0   -0.11    1.06    10.65805    61.36129    22.14759
   347  O   6.0   -0.10    1.06     9.44863    60.07439    18.44373
   348  H   1.0    0.07    1.00     5.08336    61.07594    21.10824
   349  H   1.0    0.08    1.00     6.48176    59.73424    23.86724
   350  H   1.0    0.08    1.00     6.16051    57.69333    21.33501
   351  C   4.0   -0.24    4.02    23.22473    13.54934    59.05394
   352  C   4.0    0.19    3.01    22.33656    15.77921    60.68099
   353  O   6.0   -0.11    1.05    20.52242    15.51465    62.04159
   354  O   6.0   -0.08    1.05    23.60268    17.82012    60.47312
   355  H   1.0    0.08    1.00    24.37746    14.19184    57.44767
   356  H   1.0    0.08    1.00    24.01842    11.94307    60.03848
   357  H   1.0    0.07    1.00    21.44839    12.73675    58.31694
   358  C   4.0   -0.26    4.03     3.04246    22.54443    14.85325
   359  C   4.0    0.17    3.02     2.85349    24.45305    12.75565
   360  O   6.0   -0.07    1.05     2.51334    26.79631    13.45485
   361  O   6.0   -0.12    1.29     3.19364    23.82944    10.50688
   362  H   1.0    0.07    1.00     4.98888    21.75075    14.66427
   363  H   1.0    0.11    1.01     2.91018    23.52709    16.55400
   364  H   1.0    0.08    1.00     1.73855    20.93816    14.70207
   365  C   4.0   -0.25    4.05     7.71008    22.50664    37.92680
   366  C   4.0    0.21    3.02    10.20452    23.16804    39.07953
   367  O   6.0   -0.10    1.10    10.26121    23.14914    41.42279
   368  O   6.0   -0.12    1.18    11.86748    23.98062    37.68114
   369  H   1.0    0.07    0.99     7.25655    23.50819    36.11266
   370  H   1.0    0.09    1.01     6.34948    22.80899    39.38189
   371  H   1.0    0.09    1.00     7.57780    20.50353    37.64334
   372  C   4.0   -0.30    4.05    47.20535    57.31539    48.58485
   373  C   4.0    0.18    3.01    49.58641    58.88386    48.88721
   374  O   6.0   -0.09    1.05    51.55172    58.05238    47.88566
   375  O   6.0   -0.09    1.05    49.43523    60.81138    50.24781
   376  H   1.0    0.09    1.00    47.73448    55.38787    48.16911
   377  H   1.0    0.11    1.00    46.05262    57.33429    50.17222
   378  H   1.0    0.11    1.01    46.24159    57.80672    46.94079
   379  C   4.0   -0.26    4.03    47.16756    11.05490    49.01949
   380  C   4.0    0.16    3.02    47.39433     9.03289    47.07307
   381  O   6.0   -0.09    1.06    48.33919     9.65650    44.95658
   382  O   6.0   -0.08    1.05    46.86520     6.72742    47.62109
   383  H   1.0    0.08    1.00    45.80696    12.50999    48.45257
   384  H   1.0    0.07    0.99    46.58174    10.16673    50.87142
   385  H   1.0    0.11    1.01    48.94390    11.77299    49.37854
   386  C   4.0   -0.26    4.03    38.30474    46.01483     0.32125
   387  C   4.0    0.19    3.01    38.53151    46.41167    -2.57192
   388  O   6.0   -0.10    1.05    38.02129    48.52816    -3.36560
   389  O   6.0   -0.08    1.04    39.28740    44.52194    -3.83803
   390  H   1.0    0.07    0.99    38.92835    44.08731     0.96376
   391  H   1.0    0.09    1.00    39.62755    47.14866     1.32281
   392  H   1.0    0.10    1.01    36.45281    46.50616     0.83148
   393  C   4.0   -0.24    4.02     9.08958    13.36036     0.58582
   394  C   4.0    0.18    3.01    10.33680    12.07535    -1.68375
   395  O   6.0   -0.08    1.04    10.33680    13.11470    -3.87583
   396  O   6.0   -0.10    1.06    11.31946     9.99665    -1.40029
   397  H   1.0    0.08    1.00    10.11003    12.62337     2.22988
   398  H   1.0    0.07    0.99     9.42973    15.45796     0.56692
   399  H   1.0    0.09    1.00     7.08647    13.32257     0.58582
   400  C   4.0   -0.25    4.06    53.04461    59.09173    13.79500
   401  C   4.0    0.20    3.02    50.28561    58.75158    13.47375
   402  O   6.0   -0.10    1.07    49.43523    56.84296    14.49420
   403  O   6.0   -0.10    1.06    49.18957    60.09329    11.92417
   404  H   1.0    0.08    1.00    53.29027    59.60196    15.77921
   405  H   1.0    0.09    1.00    54.42411    57.61774    13.56823
   406  H   1.0    0.08    1.00    53.49814    60.64131    12.50999
   407  C   4.0   -0.23    4.01    25.43571     3.66607     1.36060
   408  C   4.0    0.17    3.01    23.52709     4.17629    -0.75778
   409  O   6.0   -0.08    1.04    23.28142     2.45664    -2.40184
   410  O   6.0   -0.08    1.04    22.58223     6.38727    -1.00344
   411  H   1.0    0.07    1.00    25.01997     5.25344     2.66451
   412  H   1.0    0.08    1.00    25.05777     1.85193     2.24877
   413  H   1.0    0.07    0.99    27.38213     3.57158     0.54802
   414  C   4.0   -0.21    4.02    32.46549    27.85456     0.66140
   415  C   4.0    0.21    3.01    34.33632    26.87190     2.58892
   416  O   6.0   -0.10    1.07    33.90168    27.51441     4.78101
   417  O   6.0   -0.12    1.27    35.92369    25.24674     2.00311
   418  H   1.0    0.07    1.00    30.61356    28.04353     1.62516
   419  H   1.0    0.07    0.99    32.88123    29.74429    -0.15307
   420  H   1.0    0.06    0.99    32.35211    26.58844    -1.09793
   421  C   4.0   -0.28    4.04    13.00131     3.87394     0.09449
   422  C   4.0    0.19    3.01    11.52733     1.66296    -1.04124
   423  O   6.0   -0.10    1.05     9.22186     1.92752    -1.23021
   424  O   6.0   -0.08    1.05    12.73675    -0.34204    -1.49477
   425  H   1.0    0.09    1.00    12.43440     5.55579    -0.85227
   426  H   1.0    0.11    1.00    12.90683     3.89284     2.05980
   427  H   1.0    0.08    1.00    14.98553     3.43930    -0.24755
   428  C   4.0   -0.26    4.07    49.49192    27.83566    34.29853
   429  C   4.0    0.22    3.03    47.16756    26.90970    35.47016
   430  O   6.0   -0.12    1.32    45.27783    28.25140    35.77251
   431  O   6.0   -0.13    1.51    47.35653    24.56644    35.88590
   432  H   1.0    0.08    1.00    49.20846    29.78208    33.59933
   433  H   1.0    0.09    1.00    51.07929    27.89236    35.54575
   434  H   1.0    0.08    1.00    50.11553    26.64514    32.74895
   435  C   4.0   -0.26    4.01    47.07307    22.50664    14.85325
   436  C   4.0    0.19    3.01    47.99904    24.43416    12.73675
   437  O   6.0   -0.09    1.05    47.14866    26.64514    12.75565
   438  O   6.0   -0.11    1.15    49.68090    23.71606    11.26277
   439  H   1.0    0.09    1.00    45.35342    23.28142    15.60914
   440  H   1.0    0.09    1.00    46.63844    20.69250    14.09736
   441  H   1.0    0.08    1.00    48.60375    22.48774    16.23275
   442  C   4.0   -0.24    4.03    47.84786    56.18155    57.12642
   443  C   4.0    0.18    3.01    45.82585    56.16266    59.09173
   444  O   6.0   -0.08    1.05    43.78495    57.33429    58.67599
   445  O   6.0   -0.09    1.05    46.27939    54.95323    61.05894
   446  H   1.0    0.07    1.00    48.90611    54.38631    57.35318
   447  H   1.0    0.07    1.00    47.18646    56.21935    55.14220
   448  H   1.0    0.09    1.00    49.17067    57.69333    57.35318
   449  C   4.0   -0.25    4.04    38.53151    23.41370    20.16338
   450  C   4.0    0.19    3.02    36.15046    23.82944    18.65160
   451  O   6.0   -0.11    1.07    34.43081    22.37436    19.12403
   452  O   6.0   -0.09    1.05    35.96148    25.54909    17.00753
   453  H   1.0    0.08    1.00    39.60866    25.17115    20.03110
   454  H   1.0    0.08    1.00    38.32364    22.97907    22.14759
   455  H   1.0    0.08    1.00    39.68424    21.88303    19.42638
   456  C   4.0   -0.27    4.03     1.19053    51.26827     2.00311
   457  C   4.0    0.18    3.01     2.47554    51.17378    -0.56881
   458  O   6.0   -0.08    1.04     2.62672    49.17067    -1.87272
   459  O   6.0   -0.10    1.06     3.55268    53.15799    -1.17352
   460  H   1.0    0.12    1.01     2.41885    50.89032     3.43930
   461  H   1.0    0.07    1.00     0.37795    53.13909     2.47554
   462  H   1.0    0.07    0.99    -0.52723    50.03994     2.04090
   463  C   4.0   -0.24    4.02    23.18694    11.26277    14.45640
   464  C   4.0    0.20    3.02    25.68138    12.43440    13.64382
   465  O   6.0   -0.11    1.08    25.94594    12.94462    11.39505
   466  O   6.0   -0.12    1.40    27.47662    12.71786    15.19340
   467  H   1.0    0.08    1.00    23.56488     9.22186    14.64538
   468  H   1.0    0.06    0.99    22.46884    12.05645    16.30833
   469  H   1.0    0.09    1.00    21.82633    11.45174    12.98242
   470  C   4.0   -0.23    4.03    22.24207    23.22473    36.86855
   471  C   4.0    0.17    3.02    21.42949    24.75541    34.58198
   472  O   6.0   -0.09    1.06    21.67516    23.56488    32.54108
   473  O   6.0   -0.08    1.05    21.33501    27.17426    34.65757
   474  H   1.0    0.08    1.00    24.07511    22.33656    36.64179
   475  H   1.0    0.07    0.99    22.41215    24.52864    38.53151
   476  H   1.0    0.07    1.00    20.69250    21.80744    37.11422
   477  C   4.0   -0.25    4.05    23.09245    57.48546    12.94462
   478  C   4.0    0.20    3.02    23.16804    54.85874    11.92417
   479  O   6.0   -0.10    1.08    23.11135    54.78316     9.59981
   480  O   6.0   -0.10    1.06    23.24363    52.93122    13.26588
   481  H   1.0    0.09    1.00    24.67982    58.48702    12.18873
   482  H   1.0    0.08    1.01    23.30032    57.18311    14.96663
   483  H   1.0    0.07    1.00    21.33501    58.46812    12.35881
   484  C   4.0   -0.24    4.05    32.99462    50.15333    25.96483
   485  C   4.0    0.23    3.02    34.03396    48.71713    23.77275
   486  O   6.0   -0.17    1.49    32.73005    47.26205    22.69561
   487  O   6.0   -0.09    1.13    36.45281    48.90611    23.45150
   488  H   1.0    0.07    0.99    33.61822    52.17533    25.94594
   489  H   1.0    0.08    1.00    30.95371    49.75648    26.04042
   490  H   1.0    0.09    1.00    33.86389    49.64310    27.70338
   491  C   4.0   -0.25    4.04     2.02201    36.75517    59.11063
   492  C   4.0    0.19    3.01     2.17318    38.21026    56.65398
   493  O   6.0   -0.09    1.05     1.68186    40.53462    56.78626
   494  O   6.0   -0.10    1.06     2.55113    36.90635    54.74536
   495  H   1.0    0.07    0.99     2.83459    34.78985    58.95945
   496  H   1.0    0.09    1.00     2.96687    37.43547    60.73768
   497  H   1.0    0.09    1.00     0.05669    36.54730    59.58495
   498  C   4.0   -0.25    4.04    56.50281    36.84966     8.50377
   499  C   4.0    0.19    3.02    58.80638    38.47482     8.71164
   500  O   6.0   -0.10    1.10    59.92132    38.49372    10.77144
   501  O   6.0   -0.09    1.05    59.75124    39.40079     6.76522
   502  H   1.0    0.09    1.01    55.08551    38.19136     9.01399
   503  H   1.0    0.07    1.00    56.31383    36.22605     6.50066
   504  H   1.0    0.08    1.00    56.71068    35.28118     9.82657
   505  C   4.0   -0.23    4.03    24.54754    25.87035    56.59729
   506  C   4.0    0.19    3.02    22.56333    27.72228    57.40987
   507  O   6.0   -0.10    1.05    23.13025    29.85767    58.09018
   508  O   6.0   -0.08    1.06    20.31455    26.87190    57.44767
   509  H   1.0    0.09    1.01    23.71606    25.20894    54.85874
   510  H   1.0    0.07    0.99    26.55065    26.49396    56.50281
   511  H   1.0    0.07    1.00    24.33967    24.39636    58.10907
   512  C   4.0   -0.24    4.04    46.95969    11.11159    58.50592
   513  C   4.0    0.21    3.02    46.24159     8.56046    59.50936
   514  O   6.0   -0.10    1.12    44.78650     7.27544    58.12797
   515  O   6.0   -0.11    1.06    47.16756     7.89905    61.47467
   516  H   1.0    0.07    1.00    48.73603    11.56512    59.50936
   517  H   1.0    0.09    1.00    47.35653    10.90372    56.54060
   518  H   1.0    0.07    0.99    45.44791    12.60447    58.60040
   519  C   4.0   -0.25    4.04    16.78077    12.16984    20.82478
   520  C   4.0    0.19    3.01    14.22964    11.18718    21.63736
   521  O   6.0   -0.08    1.05    12.43440    10.79034    20.06889
   522  O   6.0   -0.12    1.24    14.05956    10.56357    23.88614
   523  H   1.0    0.09    1.00    16.81856    12.20763    18.78388
   524  H   1.0    0.07    1.00    17.42327    14.07846    21.37280
   525  H   1.0    0.08    1.00    18.33034    10.90372    21.24052
   526  C   4.0   -0.22    4.04     0.28346    11.13049    13.07690
   527  C   4.0    0.20    3.02     1.79524    13.43595    13.32257
   528  O   6.0   -0.10    1.21     3.87394    13.43595    12.11314
   529  O   6.0   -0.11    1.06     0.94486    15.25009    14.43751
   530  H   1.0    0.06    0.99     1.17163     9.90216    11.54623
   531  H   1.0    0.07    1.00     0.22677    10.01555    14.85325
   532  H   1.0    0.07    1.00    -1.71776    11.60292    12.69896
   533  C   4.0   -0.24    4.01     8.35259    36.92525    58.33584
   534  C   4.0    0.16    3.00    11.13049    36.22605    57.69333
   535  O   6.0   -0.09    1.25    12.56668    37.88901    56.59729
   536  O   6.0   -0.08    1.04    11.81079    33.93948    57.95789
   537  H   1.0    0.08    1.00     7.65339    38.56931    57.33429
   538  H   1.0    0.07    1.00     7.02978    35.37567    57.82561
   539  H   1.0    0.08    1.00     8.03134    37.20870    60.34084
   540  C   4.0   -0.27    4.04    26.32388    25.05777    16.44062
   541  C   4.0    0.20    3.02    25.07666    23.81055    14.17294
   542  O   6.0   -0.11    1.17    24.54754    21.56177    14.45640
   543  O   6.0   -0.10    1.09    24.77431    24.84990    12.09425
   544  H   1.0    0.09    1.01    26.70183    26.96639    15.93039
   545  H   1.0    0.08    1.00    25.07666    24.84990    18.04688
   546  H   1.0    0.09    1.00    28.04353    24.05621    16.87525
   547  C   4.0   -0.22    4.02    39.72204    15.28788    36.24494
   548  C   4.0    0.19    3.01    37.28429    16.23275    37.56775
   549  O   6.0   -0.10    1.06    36.96304    18.53821    37.34098
   550  O   6.0   -0.10    1.10    35.82920    14.72097    38.66379
   551  H   1.0    0.07    0.99    39.96770    13.24698    36.79296
   552  H   1.0    0.08    1.00    39.43858    15.26899    34.18514
   553  H   1.0    0.07    0.99    41.46059    16.38392    36.71738
   554  C   4.0   -0.28    4.03    15.43906    36.71738    21.73185
   555  C   4.0    0.19    3.03    12.88793    37.07642    22.97907
   556  O   6.0   -0.10    1.10    12.15094    35.75361    24.77431
   557  O   6.0   -0.12    1.31    11.54623    38.90946    22.26097
   558  H   1.0    0.07    1.00    16.42172    35.24339    22.84679
   559  H   1.0    0.12    1.01    15.04222    36.32053    19.89881
   560  H   1.0    0.08    1.00    16.57290    38.43703    21.90192
   561  C   4.0   -0.27    4.04    12.92573    48.64155    54.68867
   562  C   4.0    0.19    3.02    14.11625    50.15333    56.78626
   563  O   6.0   -0.09    1.06    13.43595    52.40210    56.95634
   564  O   6.0   -0.09    1.05    15.74142    49.17067    58.18466
   565  H   1.0    0.10    1.01    12.79344    46.75182    55.31228
   566  H   1.0    0.08    1.00    10.99821    49.22736    54.15955
   567  H   1.0    0.09    1.00    14.15405    48.60375    53.10130
   568  C   4.0   -0.24    4.03    22.96017    39.15512    34.92214
   569  C   4.0    0.22    3.01    21.12714    37.47327    36.50951
   570  O   6.0   -0.11    1.06    22.09090    35.82920    37.81342
   571  O   6.0   -0.12    1.18    18.89726    38.04018    36.39612
   572  H   1.0    0.09    1.01    21.80744    40.70470    34.35522
   573  H   1.0    0.07    1.00    24.41526    40.08109    36.11266
   574  H   1.0    0.08    1.00    23.86724    38.30474    33.25918
   575  C   4.0   -0.26    4.03    14.34302    45.31563     7.06758
   576  C   4.0    0.19    3.02    13.39816    48.01794     7.71008
   577  O   6.0   -0.11    1.18    11.09269    48.33919     7.27544
   578  O   6.0   -0.10    1.11    14.83435    49.66200     8.59825
   579  H   1.0    0.10    1.01    15.57134    45.65578     5.53690
   580  H   1.0    0.08    1.00    15.40127    44.44635     8.61715
   581  H   1.0    0.07    1.00    12.90683    43.86054     6.65184
   582  C   4.0   -0.22    4.01    25.66248    59.58306    19.42638
   583  C   4.0    0.20    3.01    23.88614    60.30116    21.59957
   584  O   6.0   -0.11    1.09    21.76964    59.33739    21.75075
   585  O   6.0   -0.10    1.06    24.58533    61.70144    23.33812
   586  H   1.0    0.06    0.99    24.83100    58.07128    18.14137
   587  H   1.0    0.08    1.00    25.96483    61.20822    18.21696
   588  H   1.0    0.07    1.00    27.41992    58.97835    20.39014
   589  C   4.0   -0.23    4.04     2.22988    22.96017    22.69561
   590  C   4.0    0.19    3.01     1.20942    21.41060    24.88769
   591  O   6.0   -0.09    1.06     0.20787    19.38859    24.20739
   592  O   6.0   -0.10    1.05     1.37950    22.35546    27.02308
   593  H   1.0    0.06    0.99     4.23299    22.52553    22.09090
   594  H   1.0    0.09    1.00     1.28501    22.44994    20.97596
   595  H   1.0    0.07    1.00     2.05980    25.00107    23.09245
   596  C   4.0   -0.22    4.02     0.26456    59.99880     8.40928
   597  C   4.0    0.19    3.01     2.11649    62.11718     8.97620
   598  O   6.0   -0.08    1.05     1.20942    64.32816     8.93840
   599  O   6.0   -0.10    1.05     4.30858    61.49357     9.44863
   600  H   1.0    0.07    0.99    -1.35871    59.84762     9.75099
   601  H   1.0    0.08    1.00    -0.37606    60.30116     6.46286
   602  H   1.0    0.07    1.00     1.43619    58.24135     8.42818
   603  C   4.0   -0.21    4.03    55.70912    36.26384    19.97440
   604  C   4.0    0.20    3.02    57.18311    34.54419    21.61846
   605  O   6.0   -0.10    1.06    56.01148    33.22138    23.14914
   606  O   6.0   -0.10    1.06    59.46779    34.44970    21.16493
   607  H   1.0    0.06    0.98    53.55483    36.22605    20.39014
   608  H   1.0    0.07    0.99    56.37053    38.24805    20.40904
   609  H   1.0    0.08    1.00    55.82250    35.67803    18.00909
   610  C   4.0   -0.24    4.02    47.98014    15.74142    26.15381
   611  C   4.0    0.17    3.01    48.28250    13.37926    24.45305
   612  O   6.0   -0.10    1.11    47.41322    13.62492    22.24207
   613  O   6.0   -0.09    1.13    49.56751    11.47064    25.20894
   614  H   1.0    0.07    1.00    49.77538    16.61069    26.77742
   615  H   1.0    0.07    1.00    47.12977    17.46107    25.32233
   616  H   1.0    0.09    1.00    47.01638    15.26899    27.87346
   617  C   4.0   -0.22    4.00    29.91436    36.07487    36.84966
   618  C   4.0    0.17    3.01    32.80564    36.45281    36.35833
   619  O   6.0   -0.09    1.17    33.46705    38.73938    35.88590
   620  O   6.0   -0.09    1.05    34.24183    34.60088    35.96148
   621  H   1.0    0.08    1.00    29.47972    34.12845    37.28429
   622  H   1.0    0.06    0.98    29.51752    37.01973    38.77718
   623  H   1.0    0.08    1.00    28.78053    36.86855    35.31898
   624  C   4.0   -0.28    4.04    13.13360    38.19136     7.29434
   625  C   4.0    0.20    3.02    12.56668    36.33943     9.42973
   626  O   6.0   -0.10    1.07    13.17139    34.10955     9.07068
   627  O   6.0   -0.10    1.06    11.31946    37.07642    11.24387
   628  H   1.0    0.07    0.99    14.70207    39.49527     7.91795
   629  H   1.0    0.12    1.01    11.48953    39.11733     6.97309
   630  H   1.0    0.08    1.00    13.43595    37.13311     5.55579
   631  C   4.0   -0.21    4.00    46.16600    23.18694    52.21313
   632  C   4.0    0.19    3.01    47.11087    21.78854    49.81318
   633  O   6.0   -0.10    1.06    45.63688    21.65626    47.99904
   634  O   6.0   -0.09    1.05    49.22736    20.74919    49.90766
   635  H   1.0    0.09    1.00    44.14400    22.99796    52.26982
   636  H   1.0    0.06    0.98    46.84631    25.24674    51.91077
   637  H   1.0    0.07    0.99    47.22425    22.50664    53.93278
   638  C   4.0   -0.32    4.04    47.63999    10.11003    32.61667
   639  C   4.0    0.17    3.02    46.58174    12.73675    33.24028
   640  O   6.0   -0.09    1.05    47.84786    14.32412    34.46860
   641  O   6.0   -0.09    1.10    44.48415    13.37926    32.20093
   642  H   1.0    0.11    1.01    46.16600     9.01399    31.97416
   643  H   1.0    0.12    1.01    48.98170    10.37460    31.27496
   644  H   1.0    0.08    1.00    48.30140     9.27855    34.37412
   645  C   4.0   -0.25    4.04    44.37077    36.07487    38.13467
   646  C   4.0    0.18    3.02    44.23848    38.19136    36.18825
   647  O   6.0   -0.09    1.06    42.32986    39.57086    36.39612
   648  O   6.0   -0.10    1.13    45.99593    38.45592    34.61978
   649  H   1.0    0.08    1.00    45.80696    36.39612    39.55196
   650  H   1.0    0.09    1.00    42.55663    35.73472    38.98505
   651  H   1.0    0.08    1.00    45.01327    34.41191    37.07642
   652  C   4.0   -0.26    4.05     9.54312    34.58198    35.54575
   653  C   4.0    0.18    3.02     7.02978    35.13001    34.37412
   654  O   6.0   -0.11    1.14     6.85971    37.09532    33.14579
   655  O   6.0   -0.08    1.05     5.12116    33.84499    35.18670
   656  H   1.0    0.09    1.00    10.88482    36.11266    35.41346
   657  H   1.0    0.08    1.00     9.42973    34.24183    37.58665
   658  H   1.0    0.09    1.00    10.43129    33.01351    34.61978
   659  C   4.0   -0.25    4.02     1.83303    49.03839    48.33919
   660  C   4.0    0.19    3.01    -0.14929    47.22425    47.16756
   661  O   6.0   -0.11    1.06     0.43464    45.03217    46.78961
   662  O   6.0   -0.09    1.05    -2.39806    47.98014    46.97859
   663  H   1.0    0.08    1.00     2.26767    48.30140    50.21002
   664  H   1.0    0.08    1.00     3.57158    48.86831    47.28094
   665  H   1.0    0.08    1.00     1.09604    50.94701    48.60375
   666  C   4.0   -0.20    4.00    35.48905    51.64621    47.39433
   667  C   4.0    0.17    3.01    33.22138    50.56907    45.78806
   668  O   6.0   -0.08    1.04    31.16158    49.83207    46.84631
   669  O   6.0   -0.10    1.06    33.76940    50.43679    43.50149
   670  H   1.0    0.07    1.00    35.16780    50.56907    49.15177
   671  H   1.0    0.06    0.99    37.43547    51.32496    46.50616
   672  H   1.0    0.06    0.99    35.35677    53.68711    48.07463
   673  C   4.0   -0.26    4.05    57.78782    37.39768    34.39301
   674  C   4.0    0.20    3.02    56.40832    39.02284    32.52218
   675  O   6.0   -0.10    1.06    55.76581    37.98349    30.55687
   676  O   6.0   -0.09    1.06    55.86030    41.21492    33.16469
   677  H   1.0    0.10    1.01    59.69455    37.45437    33.84499
   678  H   1.0    0.08    1.00    57.37208    37.98349    36.33943
   679  H   1.0    0.08    1.00    57.06972    35.48905    34.10955
   680  C   4.0   -0.25    4.03     3.60938     1.47399    34.37412
   681  C   4.0    0.18    3.01     3.68497    -0.56881    32.33321
   682  O   6.0   -0.09    1.04     5.70697    -1.26801    31.35055
   683  O   6.0   -0.08    1.05     1.54958    -1.32470    31.55842
   684  H   1.0    0.08    1.00     4.11960     3.26923    33.48594
   685  H   1.0    0.08    1.00     1.75745     1.39840    35.28118
   686  H   1.0    0.09    1.00     5.02667     0.96376    35.73472
   687  C   4.0   -0.24    4.01    19.16182    40.68580    10.09114
   688  C   4.0    0.20    3.02    21.78854    40.62911    11.26277
   689  O   6.0   -0.11    1.37    22.31766    38.83387    12.75565
   690  O   6.0   -0.11    1.20    23.22473    42.44324    10.80923
   691  H   1.0    0.10    1.01    19.27520    40.59131     8.10692
   692  H   1.0    0.08    1.00    17.97129    39.11733    10.67695
   693  H   1.0    0.05    0.97    18.00909    42.53773    10.50688
   694  C   4.0   -0.23    4.04    12.64227    60.49013    35.71582
   695  C   4.0    0.19    3.01    13.66272    62.68410    34.22294
   696  O   6.0   -0.08    1.05    14.87214    62.06049    32.23872
   697  O   6.0   -0.11    1.06    13.41705    64.74390    35.18670
   698  H   1.0    0.07    1.00    14.36192    59.31850    36.05597
   699  H   1.0    0.07    0.99    11.98086    61.15153    37.62444
   700  H   1.0    0.09    1.00    11.28166    59.46968    34.61978
   701  C   4.0   -0.25    4.04    11.24387    48.20691    23.14914
   702  C   4.0    0.18    3.02    10.46908    50.02105    21.18383
   703  O   6.0   -0.10    1.07    11.05490    49.60531    18.97285
   704  O   6.0   -0.07    1.05     9.16517    52.00526    21.78854
   705  H   1.0    0.08    1.00    11.98086    49.11398    24.86879
   706  H   1.0    0.09    1.00     9.82657    46.82741    23.47040
   707  H   1.0    0.07    1.00    13.02021    47.28094    22.48774
   708  C   4.0   -0.24    4.03    31.57732    59.20511    34.60088
   709  C   4.0    0.18    3.01    33.59933    60.39564    36.26384
   710  O   6.0   -0.08    1.04    33.08910    61.00035    38.56931
   711  O   6.0   -0.10    1.06    35.62133    60.75469    35.18670
   712  H   1.0    0.08    1.00    31.63401    59.48857    32.57888
   713  H   1.0    0.08    1.00    31.86078    57.16421    34.80875
   714  H   1.0    0.07    0.99    29.61201    59.58306    35.31898
   715  C   4.0   -0.26    4.06    57.97679    58.75158     0.68030
   716  C   4.0    0.23    3.02    55.89809    60.45233     0.00000
   717  O   6.0   -0.11    1.07    56.40832    62.19277    -1.41918
   718  O   6.0   -0.12    1.08    53.83829    60.01770     0.81258
   719  H   1.0    0.11    1.01    59.31661    59.03504    -0.71999
   720  H   1.0    0.07    0.99    57.57995    56.69178     0.83148
   721  H   1.0    0.08    1.00    58.84418    59.28070     2.49444
   722  C   4.0   -0.26    4.04    23.79165    25.85145    23.47040
   723  C   4.0    0.17    3.01    22.43105    28.10022    22.33656
   724  O   6.0   -0.09    1.06    23.81055    29.78208    21.35390
   725  O   6.0   -0.08    1.05    20.04999    28.06243    22.07200
   726  H   1.0    0.10    1.01    23.09245    25.56799    25.32233
   727  H   1.0    0.08    1.00    23.30032    23.99952    22.71451
   728  H   1.0    0.08    1.00    25.85145    25.96483    23.48929
   729  C   4.0   -0.26    4.05    48.41478    19.08623     1.53068
   730  C   4.0    0.19    3.02    46.82741    20.54132    -0.30425
   731  O   6.0   -0.09    1.06    45.95814    19.19962    -2.02390
   732  O   6.0   -0.10    1.15    46.07152    22.71451     0.32125
   733  H   1.0    0.08    1.00    50.02105    20.23896     2.17318
   734  H   1.0    0.09    1.00    47.33764    18.61380     3.19364
   735  H   1.0    0.09    1.00    49.15177    17.42327     0.62361
   736  C   4.0   -0.29    4.04    37.32209    57.90120    57.42877
   737  C   4.0    0.20    3.01    35.39457    59.48857    58.80827
   738  O   6.0   -0.11    1.06    33.24028    58.75158    58.84607
   739  O   6.0   -0.08    1.05    36.07487    61.47467    59.96289
   740  H   1.0    0.08    1.00    39.23071    58.63820    57.42877
   741  H   1.0    0.12    1.00    37.03863    57.61774    55.53905
   742  H   1.0    0.08    1.00    37.41657    56.14376    58.48702
   743  C   4.0   -0.27    4.03    31.95527    48.20691     9.73209
   744  C   4.0    0.17    3.01    33.97727    46.44946    10.80923
   745  O   6.0   -0.08    1.04    33.80720    45.71247    13.09580
   746  O   6.0   -0.09    1.05    35.60244    45.69357     9.22186
   747  H   1.0    0.08    1.00    30.23562    47.11087     9.86437
   748  H   1.0    0.09    1.00    31.46394    49.75648    10.96041
   749  H   1.0    0.09    1.00    32.10644    48.64155     7.76677
   750  C   4.0   -0.26    4.04    21.95862    36.11266    23.07355
   751  C   4.0    0.19    3.02    21.67516    37.73783    25.41681
   752  O   6.0   -0.10    1.07    21.69405    40.04329    25.00107
   753  O   6.0   -0.10    1.06    21.67516    36.73627    27.53331
   754  H   1.0    0.08    1.00    21.27831    34.20404    23.33812
   755  H   1.0    0.08    1.00    20.95706    37.11422    21.54288
   756  H   1.0    0.10    1.00    23.90503    35.98038    22.62002
   757  C   4.0   -0.28    4.04     2.55113     2.15429    47.16756
   758  C   4.0    0.16    3.01     2.17318    -0.28535    45.82585
   759  O   6.0   -0.08    1.05     1.60627    -2.19397    47.20535
   760  O   6.0   -0.08    1.04     2.62672    -0.39873    43.44480
   761  H   1.0    0.10    1.00     2.28657     2.05980    49.13287
   762  H   1.0    0.11    1.01     4.34637     2.89128    46.88410
   763  H   1.0    0.07    1.00     1.02045     3.47710    46.56285
   764  C   4.0   -0.27    4.06    29.87657    37.17091    45.69357
   765  C   4.0    0.20    3.02    32.37101    38.22916    46.31718
   766  O   6.0   -0.11    1.27    33.61822    37.30319    48.13132
   767  O   6.0   -0.10    1.07    33.25918    39.79763    44.84320
   768  H   1.0    0.09    1.00    29.87657    36.56620    43.74716
   769  H   1.0    0.08    1.00    29.00729    35.75361    46.92190
   770  H   1.0    0.09    1.00    28.32699    38.45592    45.69357
   771  C   4.0   -0.28    4.04    44.82430     0.37795    34.48750
   772  C   4.0    0.18    3.02    47.07307     1.71965    35.60244
   773  O   6.0   -0.10    1.05    48.43368     0.56692    37.11422
   774  O   6.0   -0.08    1.05    47.35653     4.04401    34.94103
   775  H   1.0    0.11    1.01    43.16134     0.90707    35.37567
   776  H   1.0    0.08    1.00    44.55974     1.07714    32.54108
   777  H   1.0    0.10    1.00    45.18335    -1.58926    34.50640
   778  C   4.0   -0.24    4.03    18.31144    53.83829    34.86544
   779  C   4.0    0.19    3.02    19.59646    51.87298    36.47171
   780  O   6.0   -0.11    1.10    20.65470    52.66666    38.39923
   781  O   6.0   -0.11    1.40    19.82323    49.64310    35.56464
   782  H   1.0    0.08    1.00    19.01064    53.87609    32.93792
   783  H   1.0    0.05    0.98    16.13826    54.02726    35.20559
   784  H   1.0    0.10    1.00    18.76498    55.70912    35.37567
   785  C   4.0   -0.24    4.04    34.16625    48.26360    36.49061
   786  C   4.0    0.20    3.02    32.06865    49.41633    34.94103
   787  O   6.0   -0.11    1.10    30.08444    49.83207    36.03707
   788  O   6.0   -0.09    1.06    32.55998    50.22892    32.78675
   789  H   1.0    0.09    1.00    34.33632    46.26049    36.33943
   790  H   1.0    0.06    0.99    36.15046    49.05729    36.24494
   791  H   1.0    0.08    1.00    33.65602    48.67934    38.43703
   792  C   4.0   -0.24    4.04    10.82813    16.00598    38.92835
   793  C   4.0    0.19    3.02    12.47219    14.60758    37.15201
   794  O   6.0   -0.10    1.09    11.35725    13.13360    35.69692
   795  O   6.0   -0.10    1.09    14.81545    14.77766    37.32209
   796  H   1.0    0.07    0.99     9.39194    17.27210    37.98349
   797  H   1.0    0.09    1.00    11.71630    17.08312    40.38344
   798  H   1.0    0.07    1.00     9.78878    14.47530    39.92991
   799  C   4.0   -0.23    4.03    24.84990    11.05490    38.49372
   800  C   4.0    0.20    3.02    25.96483    13.36036    39.68424
   801  O   6.0   -0.10    1.06    24.56644    14.96663    40.61021
   802  O   6.0   -0.10    1.07    28.30809    13.37926    39.66535
   803  H   1.0    0.08    1.00    26.39947    10.33680    37.34098
   804  H   1.0    0.09    1.01    24.62313     9.69429    39.94881
   805  H   1.0    0.05    0.98    22.99796    11.71630    37.45437
   806  C   4.0   -0.26    4.03    35.73472    14.96663    12.68006
   807  C   4.0    0.20    3.01    37.05753    12.35881    13.15249
   808  O   6.0   -0.11    1.15    37.20870    11.60292    15.36347
   809  O   6.0   -0.11    1.25    38.11577    11.43284    11.24387
   810  H   1.0    0.10    1.00    36.16935    15.59024    10.82813
   811  H   1.0    0.07    1.00    33.65602    14.73986    12.75565
   812  H   1.0    0.08    1.00    36.13156    16.32723    14.15405
   813  C   4.0   -0.28    4.05    47.46992     8.74943    12.69896
   814  C   4.0    0.22    3.02    50.11553     9.63760    12.11314
   815  O   6.0   -0.11    1.07    51.89187     8.46597    12.96352
   816  O   6.0   -0.12    1.22    50.45568    11.28166    10.50688
   817  H   1.0    0.10    1.01    47.35653     8.03134    14.55089
   818  H   1.0    0.08    1.00    46.14711    10.31790    12.49109
   819  H   1.0    0.09    1.00    46.86520     7.12427    11.67851
   820  C   4.0   -0.26    4.04    45.25894    49.03839    36.77407
   821  C   4.0    0.18    3.02    43.31252    50.92811    35.94259
   822  O   6.0   -0.08    1.05    41.04485    50.17222    35.64023
   823  O   6.0   -0.10    1.06    44.03061    53.15799    35.82920
   824  H   1.0    0.08    1.00    46.09042    49.58641    38.56931
   825  H   1.0    0.10    1.01    44.31407    47.28094    36.94414
   826  H   1.0    0.07    1.00    46.90300    48.81162    35.48905
   827  C   4.0   -0.24    4.06    33.92058     0.69920    13.85169
   828  C   4.0    0.19    3.02    35.24339    -1.60816    13.24698
   829  O   6.0   -0.12    1.27    37.51106    -1.32470    12.75565
   830  O   6.0   -0.08    1.05    33.95838    -3.63016    12.96352
   831  H   1.0    0.08    1.00    34.14735     2.02201    12.26432
   832  H   1.0    0.09    1.00    31.91747     0.39684    14.02177
   833  H   1.0    0.07    0.99    34.80875     1.64406    15.53355
   834  C   4.0   -0.27    4.05    20.31455    38.73938    45.22114
   835  C   4.0    0.18    3.02    22.54443    38.15357    46.82741
   836  O   6.0   -0.11    1.20    23.73496    39.98660    47.65889
   837  O   6.0   -0.08    1.05    23.01686    35.79141    47.20535
   838  H   1.0    0.09    1.00    20.54132    40.61021    44.46525
   839  H   1.0    0.08    1.00    20.42794    37.56775    43.50149
   840  H   1.0    0.10    1.01    18.61380    38.70159    46.24159
   841  C   4.0   -0.26    4.05    12.96352    49.22736    34.01507
   842  C   4.0    0.20    3.02    10.43129    49.60531    32.91903
   843  O   6.0   -0.09    1.14     9.20297    47.63999    32.12534
   844  O   6.0   -0.12    1.07     9.59981    51.70290    32.88123
   845  H   1.0    0.08    1.00    13.56823    47.24315    34.24183
   846  H   1.0    0.08    1.00    14.38081    50.03994    32.78675
   847  H   1.0    0.09    1.01    13.00131    50.19112    35.79141
   848  C   4.0   -0.26    4.06    35.56464    14.51310    28.64825
   849  C   4.0    0.18    3.02    35.20559    12.22653    27.02308
   850  O   6.0   -0.09    1.06    34.82765    12.77455    24.73651
   851  O   6.0   -0.09    1.06    35.18670    10.16673    28.17581
   852  H   1.0    0.09    1.01    36.43392    15.87370    27.41992
   853  H   1.0    0.08    1.00    36.73627    13.90838    30.23562
   854  H   1.0    0.08    1.00    33.84499    15.42016    29.29075
   855  C   4.0   -0.24    4.01    17.91460    40.40234     1.81414
   856  C   4.0    0.18    3.01    20.67360    39.38189     2.13539
   857  O   6.0   -0.10    1.13    21.61846    39.23071     4.32747
   858  O   6.0   -0.10    1.14    21.90192    39.21181     0.09449
   859  H   1.0    0.08    1.00    17.02643    40.23227     3.68497
   860  H   1.0    0.09    1.00    17.93350    42.38655     1.54958
   861  H   1.0    0.06    0.99    16.57290    39.58976     0.35905
   862  C   4.0   -0.28    4.04    46.12821    34.39301    46.22270
   863  C   4.0    0.18    3.02    45.10776    31.99306    47.43212
   864  O   6.0   -0.09    1.06    45.44791    31.78519    49.75648
   865  O   6.0   -0.09    1.05    43.84164    30.46238    46.10931
   866  H   1.0    0.09    1.00    45.93924    36.05597    47.35653
   867  H   1.0    0.08    1.00    48.11242    34.26073    45.71247
   868  H   1.0    0.10    1.01    45.14555    34.75206    44.54084
   869  C   4.0   -0.24    4.04    38.30474     8.39038    48.69824
   870  C   4.0    0.19    3.02    37.09532    10.63916    47.45102
   871  O   6.0   -0.09    1.06    34.75206    10.92262    47.84786
   872  O   6.0   -0.11    1.23    38.38033    12.05645    46.07152
   873  H   1.0    0.08    1.00    40.34565     8.57936    48.77383
   874  H   1.0    0.08    1.00    37.45437     8.29590    50.56907
   875  H   1.0    0.07    1.00    37.92680     6.65184    47.60220
   876  C   4.0   -0.16    4.03    41.97081    24.56644    30.23562
   877  N   5.0   -0.23    3.99    40.59131    22.63892    31.99306
   878  H   1.0    0.06    0.99    41.98971    26.47506    31.27496
   879  H   1.0    0.10    1.00    41.36610    24.71762    28.34589
   880  H   1.0    0.06    0.98    44.04951    23.90503    29.93326
   881  C   4.0   -0.16    4.12    42.25427    22.33656    34.27963
   882  H   1.0    0.04    0.93    42.70781    24.22629    35.58354
   883  H   1.0    0.10    1.00    43.91723    21.27831    34.09066
   884  H   1.0    0.08    1.00    41.44169    21.22162    35.81031
   885  C   4.0   -0.18    4.12    38.11577    23.50819    33.29697
   886  H   1.0    0.08    1.00    37.45437    22.05310    34.63868
   887  H   1.0    0.07    0.99    36.52840    23.86724    31.93637
   888  H   1.0    0.09    1.00    38.34254    24.98218    34.69537
   889  C   4.0   -0.11    4.13    40.04329    19.91771    31.04820
   890  H   1.0    0.08    1.00    38.92835    18.76498    32.35211
   891  H   1.0    0.08    1.01    39.00394    19.86102    29.27185
   892  C   4.0   -0.16    4.06    42.36766    18.53821    30.14113
   893  H   1.0    0.10    1.01    43.19914    19.40749    28.55376
   894  H   1.0    0.12    1.01    43.70936    18.46262    31.53953
   895  O   6.0   -0.13    1.99    41.66846    16.21385    29.21516
   896  H   1.0    0.08    1.01    42.72670    14.92883    30.38679
   897  C   4.0   -0.17    4.08    15.04222    28.89391     6.55735
   898  N   5.0   -0.24    3.99    15.89260    30.21672     4.11960
   899  H   1.0    0.10    1.01    14.66427    30.42459     7.76677
   900  H   1.0    0.07    0.99    13.43595    27.53331     6.16051
   901  H   1.0    0.06    0.98    16.49731    27.66559     7.61560
   902  C   4.0   -0.16    4.07    16.34613    28.19471     2.05980
   903  H   1.0    0.09    1.00    16.98864    28.96950     0.28346
   904  H   1.0    0.07    0.99    17.97129    26.92859     2.53223
   905  H   1.0    0.06    0.99    14.39971    27.34433     1.66296
   906  C   4.0   -0.21    4.11    13.79500    31.86078     3.17474
   907  H   1.0    0.08    1.00    14.51310    33.01351     1.58737
   908  H   1.0    0.09    1.00    12.05645    31.04820     2.55113
   909  H   1.0    0.11    1.01    13.28477    33.05131     4.64873
   910  C   4.0   -0.12    4.08    18.40593    31.67181     4.78101
   911  H   1.0    0.10    1.01    19.19962    32.16314     3.02356
   912  H   1.0    0.07    0.99    19.69094    30.36790     5.89594
   913  C   4.0   -0.14    4.03    18.53821    34.27963     6.08492
   914  H   1.0    0.11    1.01    17.44217    35.64023     5.17785
   915  H   1.0    0.09    1.01    17.76342    34.01507     7.93685
   916  O   6.0   -0.17    2.03    21.01375    35.07331     6.44397
   917  H   1.0    0.11    1.08    21.24052    36.81186     5.72587
   918  C   4.0   -0.22    4.15    51.51393    16.17605    41.10154
   919  N   5.0   -0.26    4.01    48.88721    16.25164    42.08420
   920  H   1.0    0.07    0.99    52.49659    14.32412    41.42279
   921  H   1.0    0.14    1.01    52.59107    17.59335    41.74405
   922  H   1.0    0.08    1.00    51.58952    16.53510    39.07953
   923  C   4.0   -0.17    4.10    47.43212    14.04066    40.93146
   924  H   1.0    0.09    1.00    45.52350    13.96507    41.57397
   925  H   1.0    0.06    0.98    47.31874    13.87059    38.75828
   926  H   1.0    0.08    1.00    48.75493    12.49109    41.36610
   927  C   4.0   -0.17    4.09    49.05729    15.83590    44.95658
   928  H   1.0    0.10    1.00    50.02105    17.32879    45.88255
   929  H   1.0    0.05    0.97    50.17222    13.94618    45.37232
   930  H   1.0    0.08    1.00    47.26205    15.59024    45.97703
   931  C   4.0   -0.11    4.15    47.75337    18.80277    41.49838
   932  H   1.0    0.08    1.01    49.22736    20.25786    41.83853
   933  H   1.0    0.10    1.01    46.26049    19.18072    42.80229
   934  C   4.0   -0.13    4.02    46.77072    19.46418    38.96615
   935  H   1.0    0.07    1.00    48.37698    19.29410    37.62444
   936  H   1.0    0.10    1.01    45.33453    18.14137    38.56931
   937  O   6.0   -0.13    2.01    45.63688    21.95862    39.09843
   938  H   1.0    0.10    1.29    46.29829    23.13025    37.66224
   939  C   4.0   -0.12    4.07    31.50173    50.49348    16.89415
   940  N   5.0   -0.23    3.98    29.61201    52.43990    17.72563
   941  H   1.0    0.05    0.96    32.08755    49.20846    18.67049
   942  H   1.0    0.08    1.00    33.03241    51.02260    15.59024
   943  H   1.0    0.07    0.99    30.57577    48.94390    15.76031
   944  C   4.0   -0.18    4.07    30.95371    54.21624    19.63425
   945  H   1.0    0.08    1.00    29.55531    55.70912    19.89881
   946  H   1.0    0.06    0.99    32.84344    55.02882    18.99175
   947  H   1.0    0.10    1.00    31.80409    53.38476    21.24052
   948  C   4.0   -0.14    4.07    28.98840    53.89498    15.25009
   949  H   1.0    0.06    0.98    30.91592    54.59418    14.49420
   950  H   1.0    0.06    0.99    27.93015    52.59107    13.90838
   951  H   1.0    0.07    0.99    27.70338    55.55794    15.47686
   952  C   4.0   -0.16    4.12    27.06088    51.32496    18.76498
   953  H   1.0    0.11    1.01    26.30499    50.05884    17.44217
   954  H   1.0    0.11    1.02    27.59000    50.38009    20.40904
   955  C   4.0   -0.10    4.03    24.90659    52.79894    19.61536
   956  H   1.0    0.07    0.99    25.56799    54.29183    21.01375
   957  H   1.0    0.10    1.01    24.35857    53.95168    18.08468
   958  O   6.0   -0.17    2.04    23.07355    51.19268    20.46573
   959  H   1.0    0.11    1.03    22.43105    51.47613    22.22318
   960  C   4.0   -0.21    4.20     8.35259    30.89702     7.38883
   961  N   5.0   -0.24    4.00     5.89594    32.06865     6.36838
   962  H   1.0    0.09    1.01     7.89905    30.84033     9.37304
   963  H   1.0    0.10    1.00     8.88171    29.06399     6.76522
   964  H   1.0    0.09    1.00     9.76988    32.37101     7.27544
   965  C   4.0   -0.13    4.05     5.70697    34.77096     7.27544
   966  H   1.0    0.06    0.98     7.35103    36.11266     6.74632
   967  H   1.0    0.05    0.97     5.19675    35.18670     9.41084
   968  H   1.0    0.09    1.00     3.98732    35.62133     6.61404
   969  C   4.0   -0.16    4.14     6.61404    31.87968     3.60938
   970  H   1.0    0.07    0.99     6.72742    29.93326     2.72121
   971  H   1.0    0.11    1.01     4.91329    32.42770     2.77790
   972  H   1.0    0.06    0.98     8.31479    33.01351     2.77790
   973  C   4.0   -0.14    4.11     3.59048    30.48128     7.38883
   974  H   1.0    0.14    1.02     1.94642    31.21827     6.80301
   975  H   1.0    0.06    0.98     3.34481    30.57577     9.56201
   976  C   4.0   -0.16    4.05     3.25033    27.89236     6.31168
   977  H   1.0    0.14    1.02     4.68652    26.77742     6.76522
   978  H   1.0    0.08    1.00     2.91018    27.85456     4.27078
   979  O   6.0   -0.15    2.05     1.34171    26.92859     7.76677
   980  H   1.0    0.10    1.23     2.13539    25.62468     8.97620
   981  C   4.0   -0.18    4.15    43.12355    55.61463    13.66272
   982  N   5.0   -0.27    4.01    43.10465    54.55639    16.23275
   983  H   1.0    0.09    1.01    44.97548    56.42722    13.49264
   984  H   1.0    0.09    1.00    42.19758    57.40987    13.39816
   985  H   1.0    0.08    1.00    42.87788    54.25403    12.09425
   986  C   4.0   -0.14    4.15    45.08886    52.57218    16.30833
   987  H   1.0    0.06    0.99    44.57864    50.83363    15.13670
   988  H   1.0    0.08    1.00    47.01638    52.96902    15.64693
   989  H   1.0    0.07    1.00    45.35342    51.96746    18.31144
   990  C   4.0   -0.17    4.11    44.04951    56.55950    18.16027
   991  H   1.0    0.06    0.99    42.78340    58.27915    18.46262
   992  H   1.0    0.07    0.99    45.75027    57.76892    17.74453
   993  H   1.0    0.10    1.00    44.37077    56.04927    20.06889
   994  C   4.0   -0.15    4.14    40.47793    53.70601    16.93194
   995  H   1.0    0.11    1.01    39.21181    55.02882    16.25164
   996  H   1.0    0.10    1.01    40.32675    52.17533    15.64693
   997  C   4.0   -0.14    4.01    39.53307    53.13909    19.61536
   998  H   1.0    0.07    0.99    41.06374    52.02416    20.61691
   999  H   1.0    0.13    1.02    39.74094    54.87764    20.37125
  1000  O   6.0   -0.12    1.97    37.07642    52.06195    19.86102
  1001  H   1.0    0.08    1.03    37.03863    50.96591    21.56177
  1002  C   4.0   -0.15    4.11    31.44504    11.45174     6.25499
  1003  N   5.0   -0.27    4.00    31.53953     8.61715     6.74632
  1004  H   1.0    0.06    0.98    32.27652    12.52888     7.95575
  1005  H   1.0    0.07    0.99    32.08755    11.92417     4.27078
  1006  H   1.0    0.09    1.00    29.49862    12.05645     6.12271
  1007  C   4.0   -0.15    4.15    29.74429     7.38883     5.08336
  1008  H   1.0    0.10    1.00    29.66870     5.42351     5.48021
  1009  H   1.0    0.06    0.98    30.23562     7.33214     2.94797
  1010  H   1.0    0.08    1.00    27.77897     8.05023     5.31013
  1011  C   4.0   -0.16    4.10    34.27963     7.84236     6.70853
  1012  H   1.0    0.07    0.99    35.43236     9.31635     7.74788
  1013  H   1.0    0.09    1.00    34.75206     5.97153     7.35103
  1014  H   1.0    0.07    0.99    34.88434     7.86126     4.68652
  1015  C   4.0   -0.14    4.15    30.48128     8.01244     9.39194
  1016  H   1.0    0.13    1.01    30.44349     6.16051     9.84547
  1017  H   1.0    0.06    0.99    28.40258     8.61715     9.59981
  1018  C   4.0   -0.08    4.00    31.61512     9.20297    11.92417
  1019  H   1.0    0.07    0.99    33.65602     8.59825    12.01866
  1020  H   1.0    0.06    0.99    31.53953    11.35725    11.92417
  1021  O   6.0   -0.14    2.00    30.21672     8.35259    14.05956
  1022  H   1.0    0.09    1.01    29.49862    10.03444    14.72097
  1023  C   4.0   -0.17    4.10    22.86568    43.97392    56.21935
  1024  N   5.0   -0.23    3.97    20.99486    45.42901    54.65087
  1025  H   1.0    0.07    0.99    23.07355    41.95192    55.63353
  1026  H   1.0    0.09    1.00    24.79320    44.61643    56.29494
  1027  H   1.0    0.08    1.00    22.56333    43.91723    58.26025
  1028  C   4.0   -0.19    4.09    21.69405    48.32029    55.16110
  1029  H   1.0    0.07    1.00    23.71606    48.75493    54.82095
  1030  H   1.0    0.08    1.00    21.27831    48.73603    57.12642
  1031  H   1.0    0.08    1.00    20.71140    49.75648    54.06506
  1032  C   4.0   -0.18    4.09    21.59957    45.31563    51.77849
  1033  H   1.0    0.06    0.99    21.35390    43.23693    51.21157
  1034  H   1.0    0.08    1.00    23.62157    45.59909    51.32496
  1035  H   1.0    0.10    1.00    20.52242    46.37387    50.49348
  1036  C   4.0   -0.10    4.06    18.27365    44.55974    55.23669
  1037  H   1.0    0.07    0.99    17.80122    44.99437    57.27759
  1038  H   1.0    0.10    1.01    17.38548    45.90144    54.02726
  1039  C   4.0   -0.09    3.98    17.08312    41.85743    54.49970
  1040  H   1.0    0.06    0.99    17.83901    40.11888    55.53905
  1041  H   1.0    0.08    1.00    17.59335    41.76294    52.51548
  1042  O   6.0   -0.10    1.90    14.43751    41.83853    54.82095
  1043  H   1.0    0.06    1.09    13.79500    39.92991    55.52015
  1044  C   4.0   -0.15    4.08    52.78005    45.63688    15.28788
  1045  N   5.0   -0.24    3.99    52.89343    42.80229    15.00442
  1046  H   1.0    0.07    1.00    50.85253    46.44946    15.19340
  1047  H   1.0    0.06    0.98    53.97057    46.61954    13.71941
  1048  H   1.0    0.08    1.00    53.40366    46.01483    17.21540
  1049  C   4.0   -0.15    4.09    51.02260    41.36610    16.64849
  1050  H   1.0    0.07    0.99    49.01949    41.98971    16.34613
  1051  H   1.0    0.06    0.98    50.79583    39.23071    16.30833
  1052  H   1.0    0.09    1.00    51.34385    41.61177    18.65160
  1053  C   4.0   -0.17    4.11    52.04305    42.21648    12.28322
  1054  H   1.0    0.09    1.00    50.11553    42.78340    11.88638
  1055  H   1.0    0.06    0.98    52.15644    40.09998    11.81079
  1056  H   1.0    0.08    1.00    53.15799    43.29362    10.90372
  1057  C   4.0   -0.18    4.11    55.61463    41.81964    15.45796
  1058  H   1.0    0.11    1.01    55.70912    41.66846    17.42327
  1059  H   1.0    0.13    1.02    55.89809    39.92991    15.34457
  1060  C   4.0   -0.15    4.03    58.01459    42.57553    14.02177
  1061  H   1.0    0.10    1.01    58.43033    44.50305    14.26743
  1062  H   1.0    0.10    1.01    57.69333    42.44324    12.05645
  1063  O   6.0   -0.17    2.01    60.05360    40.96926    14.87214
  1064  H   1.0    0.14    1.04    60.46934    40.06219    13.34147
  1065  C   4.0   -0.16    4.14    14.89104    18.84057    20.65470
  1066  N   5.0   -0.28    4.02    16.25164    21.14603    19.84212
  1067  H   1.0    0.07    1.00    15.53355    17.36658    19.25631
  1068  H   1.0    0.07    0.99    12.77455    18.84057    20.35235
  1069  H   1.0    0.10    1.01    15.47686    18.29255    22.46884
  1070  C   4.0   -0.19    4.13    15.02332    22.01531    17.36658
  1071  H   1.0    0.07    0.99    13.00131    22.63892    17.36658
  1072  H   1.0    0.11    1.00    15.57134    23.67827    16.45951
  1073  H   1.0    0.07    0.99    15.36347    20.61691    15.81701
  1074  C   4.0   -0.15    4.14    15.64693    23.28142    21.67516
  1075  H   1.0    0.09    1.00    16.40282    25.00107    20.86257
  1076  H   1.0    0.06    0.99    15.87370    23.16804    23.81055
  1077  H   1.0    0.06    0.99    13.51154    23.69716    21.73185
  1078  C   4.0   -0.09    4.19    18.99175    20.86257    19.80433
  1079  H   1.0    0.08    1.01    19.35079    20.16338    21.75075
  1080  H   1.0    0.09    1.01    19.80433    22.75230    19.93661
  1081  C   4.0   -0.11    4.03    20.39014    19.33190    17.89570
  1082  H   1.0    0.07    1.00    19.70984    17.36658    18.27365
  1083  H   1.0    0.10    1.01    19.76653    20.08779    16.17605
  1084  O   6.0   -0.15    2.03    22.90348    19.65315    18.46262
  1085  H   1.0    0.10    1.09    23.67827    20.50353    16.89415
  1086  C   4.0   -0.12    4.09     2.22988    19.19962    52.34541
  1087  N   5.0   -0.25    4.01     5.02667    18.57601    52.42100
  1088  H   1.0    0.06    0.98     0.86927    17.57445    52.79894
  1089  H   1.0    0.06    0.99     1.51178    20.86257    53.53594
  1090  H   1.0    0.07    0.99     1.77634    19.40749    50.26671
  1091  C   4.0   -0.18    4.12     5.74477    16.28944    50.83363
  1092  H   1.0    0.07    0.99     7.78567    16.15716    50.26671
  1093  H   1.0    0.06    0.99     4.93218    14.32412    51.17378
  1094  H   1.0    0.11    1.01     4.93218    16.64849    49.09508
  1095  C   4.0   -0.21    4.13     6.21720    20.88147    51.17378
  1096  H   1.0    0.09    1.00     8.23921    20.95706    51.24937
  1097  H   1.0    0.09    1.00     5.82036    20.95706    49.17067
  1098  H   1.0    0.10    1.00     5.59359    22.62002    51.92967
  1099  C   4.0   -0.15    4.13     5.93374    17.78232    55.04772
  1100  H   1.0    0.10    1.01     5.19675    15.94929    55.36897
  1101  H   1.0    0.11    1.01     7.82347    17.25320    54.91544
  1102  C   4.0   -0.14    4.05     5.23454    19.80433    57.12642
  1103  H   1.0    0.10    1.01     6.17940    21.54288    56.78626
  1104  H   1.0    0.09    1.00     3.25033    20.08779    57.37208
[...]
  3160  C   3.957    C 3157 0.979    O 3163 0.979    H 3162 0.965    H 3161 0.960
  3161  H   0.998    C 3160 0.960
  3162  H   0.997    C 3160 0.965
  3163  O   1.973    C 3160 0.979    H 3164 0.730    O  766 0.125
  3164  H   0.977    O 3163 0.730    O  766 0.238
  3165  C   3.905    H 3169 0.980    H 3167 0.978    H 3168 0.976    N 3166 0.924
  3166  N   3.766    C 3174 0.940    C 3170 0.926    C 3165 0.924    C 3178 0.909
  3167  H   0.995    C 3165 0.978
  3168  H   0.995    C 3165 0.976
  3169  H   0.997    C 3165 0.980
  3170  C   3.904    H 3173 0.979    H 3172 0.976    H 3171 0.973    N 3166 0.926
  3171  H   0.995    C 3170 0.973
  3172  H   0.995    C 3170 0.976
  3173  H   0.997    C 3170 0.979
  3174  C   3.916    H 3176 0.982    H 3175 0.976    H 3177 0.975    N 3166 0.940
  3175  H   0.995    C 3174 0.976
  3176  H   0.996    C 3174 0.982
  3177  H   0.995    C 3174 0.975
  3178  C   3.900    H 3179 0.970    H 3180 0.964    C 3181 0.958    N 3166 0.909
  3179  H   0.998    C 3178 0.970
  3180  H   0.996    C 3178 0.964
  3181  C   3.943    O 3184 1.023    H 3182 0.968    C 3178 0.958    H 3183 0.948
  3182  H   1.000    C 3181 0.968
  3183  H   0.997    C 3181 0.948
  3184  O   2.055    C 3181 1.023    H 3185 0.828    O  578 0.074
  3185  H   0.973    O 3184 0.828    O  578 0.127
  3186  C   3.909    H 3188 0.978    H 3189 0.976    H 3190 0.964    N 3187 0.945
  3187  N   3.738    C 3186 0.945    C 3195 0.929    C 3191 0.904    C 3199 0.878
  3188  H   0.996    C 3186 0.978
  3189  H   0.997    C 3186 0.976
  3190  H   0.994    C 3186 0.964
  3191  C   3.893    H 3192 0.979    H 3194 0.977    H 3193 0.977    N 3187 0.904
  3192  H   0.995    C 3191 0.979
  3193  H   0.995    C 3191 0.977
  3194  H   0.995    C 3191 0.977
  3195  C   3.903    H 3197 0.983    H 3196 0.977    H 3198 0.970    N 3187 0.929
  3196  H   0.996    C 3195 0.977
  3197  H   0.998    C 3195 0.983
  3198  H   0.993    C 3195 0.970
  3199  C   3.855    H 3201 0.967    H 3200 0.960    C 3202 0.942    N 3187 0.878    O 3205 0.064
  3200  H   0.997    C 3199 0.960
  3201  H   0.998    C 3199 0.967
  3202  C   3.958    O 3205 1.041    H 3203 0.971    H 3204 0.970    C 3199 0.942
  3203  H   0.998    C 3202 0.971
  3204  H   0.997    C 3202 0.970
  3205  O   2.064    C 3202 1.041    H 3206 0.765    O  808 0.104    C 3199 0.064
  3206  H   0.974    O 3205 0.765    O  808 0.195
  3207  C   3.908    H 3209 0.980    H 3210 0.978    H 3211 0.976    N 3208 0.926
  3208  N   3.759    C 3212 0.949    C 3216 0.940    C 3207 0.926    C 3220 0.859
  3209  H   0.997    C 3207 0.980
  3210  H   0.995    C 3207 0.978
  3211  H   0.995    C 3207 0.976
  3212  C   3.919    H 3214 0.976    H 3213 0.973    H 3215 0.966    N 3208 0.949
  3213  H   0.997    C 3212 0.973
  3214  H   0.997    C 3212 0.976
  3215  H   0.996    C 3212 0.966
  3216  C   3.913    H 3219 0.974    H 3218 0.974    H 3217 0.973    N 3208 0.940
  3217  H   0.997    C 3216 0.973
  3218  H   0.995    C 3216 0.974
  3219  H   0.994    C 3216 0.974
  3220  C   3.887    C 3223 1.016    H 3222 0.952    H 3221 0.950    N 3208 0.859    O 3226 0.062
  3221  H   0.996    C 3220 0.950
  3222  H   0.998    C 3220 0.952
  3223  C   3.960    C 3220 1.016    O 3226 1.011    H 3225 0.953    H 3224 0.947
  3224  H   0.999    C 3223 0.947
  3225  H   0.998    C 3223 0.953
  3226  O   2.091    C 3223 1.011    H 3227 0.813    O  368 0.082    C 3220 0.062
  3227  H   0.975    O 3226 0.813    O  368 0.148
  3228  C   3.900    H 3231 0.976    H 3232 0.973    H 3230 0.967    N 3229 0.927
  3229  N   3.756    C 3237 0.949    C 3228 0.927    C 3233 0.911    C 3241 0.901
  3230  H   0.993    C 3228 0.967
  3231  H   0.997    C 3228 0.976
  3232  H   0.996    C 3228 0.973
  3233  C   3.896    H 3236 0.974    H 3234 0.973    H 3235 0.971    N 3229 0.911
  3234  H   0.998    C 3233 0.973
  3235  H   0.994    C 3233 0.971
  3236  H   0.994    C 3233 0.974
  3237  C   3.910    H 3240 0.972    H 3238 0.971    H 3239 0.965    N 3229 0.949
  3238  H   0.997    C 3237 0.971
  3239  H   0.993    C 3237 0.965
  3240  H   0.995    C 3237 0.972
  3241  C   3.900    C 3244 0.997    H 3242 0.960    H 3243 0.959    N 3229 0.901
  3242  H   0.997    C 3241 0.960
  3243  H   0.997    C 3241 0.959
  3244  C   3.954    O 3247 1.006    C 3241 0.997    H 3246 0.962    H 3245 0.960
  3245  H   0.998    C 3244 0.960
  3246  H   0.999    C 3244 0.962
  3247  O   2.036    C 3244 1.006    H 3248 0.953
  3248  H   0.969    O 3247 0.953
  3249  C   3.773    H 3253 0.958    H 3251 0.953    H 3252 0.952    N 3250 0.859
  3250  N   3.518    C 3258 0.886    C 3254 0.876    C 3249 0.859    C 3262 0.820
  3251  H   0.983    C 3249 0.953
  3252  H   0.973    C 3249 0.952
  3253  H   0.982    C 3249 0.958
  3254  C   3.826    H 3256 0.982    H 3257 0.968    H 3255 0.960    N 3250 0.876
  3255  H   0.982    C 3254 0.960
  3256  H   0.995    C 3254 0.982
  3257  H   0.987    C 3254 0.968
  3258  C   3.851    H 3259 0.973    H 3261 0.972    H 3260 0.968    N 3250 0.886
  3259  H   0.989    C 3258 0.973
  3260  H   0.991    C 3258 0.968
  3261  H   0.993    C 3258 0.972
  3262  C   3.704    H 3263 0.952    H 3264 0.950    C 3265 0.881    N 3250 0.820
  3263  H   0.986    C 3262 0.952
  3264  H   0.979    C 3262 0.950
  3265  C   3.874    O 3268 1.023    H 3266 0.974    H 3267 0.959    C 3262 0.881
  3266  H   0.996    C 3265 0.974
  3267  H   0.993    C 3265 0.959
  3268  O   2.071    C 3265 1.023    H 3269 0.966
  3269  H   0.976    O 3268 0.966
  3270  C   3.915    H 3274 0.979    H 3272 0.976    H 3273 0.970    N 3271 0.947
  3271  N   3.753    C 3270 0.947    C 3275 0.936    C 3279 0.916    C 3283 0.866
  3272  H   0.997    C 3270 0.976
  3273  H   0.993    C 3270 0.970
  3274  H   0.997    C 3270 0.979
  3275  C   3.907    H 3277 0.975    H 3276 0.975    H 3278 0.964    N 3271 0.936
  3276  H   0.995    C 3275 0.975
  3277  H   0.997    C 3275 0.975
  3278  H   0.994    C 3275 0.964
  3279  C   3.886    H 3280 0.978    H 3281 0.977    H 3282 0.962    N 3271 0.916
  3280  H   0.997    C 3279 0.978
  3281  H   0.997    C 3279 0.977
  3282  H   0.990    C 3279 0.962
  3283  C   3.887    C 3286 0.987    H 3284 0.964    H 3285 0.964    N 3271 0.866    O 3289 0.054
  3284  H   0.998    C 3283 0.964
  3285  H   0.997    C 3283 0.964
  3286  C   3.951    O 3289 1.007    C 3283 0.987    H 3288 0.964    H 3287 0.953
  3287  H   0.998    C 3286 0.953
  3288  H   0.998    C 3286 0.964
  3289  O   2.043    C 3286 1.007    H 3290 0.802    O  325 0.092    C 3283 0.054
  3290  H   0.975    O 3289 0.802    O  325 0.156
  3291  C   3.906    H 3293 0.974    H 3294 0.974    H 3295 0.974    N 3292 0.931
  3292  N   3.741    C 3296 0.934    C 3291 0.931    C 3300 0.909    C 3304 0.888
  3293  H   0.996    C 3291 0.974
  3294  H   0.994    C 3291 0.974
  3295  H   0.996    C 3291 0.974
  3296  C   3.911    H 3299 0.979    H 3298 0.977    H 3297 0.973    N 3292 0.934
  3297  H   0.993    C 3296 0.973
  3298  H   0.997    C 3296 0.977
  3299  H   0.997    C 3296 0.979
  3300  C   3.892    H 3303 0.974    H 3302 0.971    H 3301 0.971    N 3292 0.909
  3301  H   0.995    C 3300 0.971
  3302  H   0.997    C 3300 0.971
  3303  H   0.994    C 3300 0.974
  3304  C   3.879    C 3307 0.973    H 3305 0.965    H 3306 0.953    N 3292 0.888    O 3310 0.050
  3305  H   0.997    C 3304 0.965
  3306  H   0.997    C 3304 0.953
  3307  C   3.962    O 3310 1.022    C 3304 0.973    H 3309 0.969    H 3308 0.965
  3308  H   0.999    C 3307 0.965
  3309  H   0.997    C 3307 0.969
  3310  O   2.024    C 3307 1.022    H 3311 0.754    O  213 0.113    C 3304 0.050
  3311  H   0.976    O 3310 0.754    O  213 0.205
  3312  C   3.897    H 3315 0.973    H 3316 0.968    H 3314 0.967    N 3313 0.932
  3313  N   3.752    C 3321 0.944    C 3312 0.932    C 3317 0.916    C 3325 0.891
  3314  H   0.994    C 3312 0.967
  3315  H   0.995    C 3312 0.973
  3316  H   0.997    C 3312 0.968
  3317  C   3.904    H 3320 0.977    H 3318 0.976    H 3319 0.975    N 3313 0.916
  3318  H   0.996    C 3317 0.976
  3319  H   0.995    C 3317 0.975
  3320  H   0.996    C 3317 0.977
  3321  C   3.922    H 3324 0.977    H 3322 0.977    H 3323 0.977    N 3313 0.944
  3322  H   0.996    C 3321 0.977
  3323  H   0.996    C 3321 0.977
  3324  H   0.996    C 3321 0.977
  3325  C   3.896    C 3328 0.982    H 3326 0.966    H 3327 0.965    N 3313 0.891
  3326  H   0.995    C 3325 0.966
  3327  H   0.996    C 3325 0.965
  3328  C   3.959    O 3331 1.014    C 3325 0.982    H 3330 0.968    H 3329 0.963
  3329  H   0.996    C 3328 0.963
  3330  H   1.000    C 3328 0.968
  3331  O   2.018    C 3328 1.014    H 3332 0.769    O  690 0.104
  3332  H   0.978    O 3331 0.769    O  690 0.199
  3333  C   3.911    H 3336 0.972    H 3335 0.970    H 3337 0.969    N 3334 0.949
  3334  N   3.767    C 3333 0.949    C 3342 0.943    C 3338 0.905    C 3346 0.899
  3335  H   0.994    C 3333 0.970
  3336  H   0.997    C 3333 0.972
  3337  H   0.997    C 3333 0.969
  3338  C   3.887    H 3340 0.982    H 3339 0.978    H 3341 0.973    N 3334 0.905
  3339  H   0.997    C 3338 0.978
  3340  H   0.997    C 3338 0.982
  3341  H   0.991    C 3338 0.973
  3342  C   3.917    H 3344 0.977    H 3345 0.973    H 3343 0.973    N 3334 0.943
  3343  H   0.995    C 3342 0.973
  3344  H   0.999    C 3342 0.977
  3345  H   0.993    C 3342 0.973
  3346  C   3.905    H 3348 0.975    H 3347 0.971    C 3349 0.965    N 3334 0.899    O 3352 0.055
  3347  H   0.996    C 3346 0.971
  3348  H   0.997    C 3346 0.975
  3349  C   3.953    O 3352 1.018    H 3351 0.974    C 3346 0.965    H 3350 0.963
  3350  H   0.996    C 3349 0.963
  3351  H   0.998    C 3349 0.974
  3352  O   2.045    C 3349 1.018    H 3353 0.811    O  557 0.093    C 3346 0.055
  3353  H   0.976    O 3352 0.811    O  557 0.154
  3354  C   3.905    H 3356 0.976    H 3357 0.974    H 3358 0.971    N 3355 0.930
  3355  N   3.745    C 3363 0.939    C 3354 0.930    C 3359 0.918    C 3367 0.872
  3356  H   0.997    C 3354 0.976
  3357  H   0.996    C 3354 0.974
  3358  H   0.993    C 3354 0.971
  3359  C   3.894    H 3360 0.976    H 3362 0.973    H 3361 0.971    N 3355 0.918
  3360  H   0.996    C 3359 0.976
  3361  H   0.993    C 3359 0.971
  3362  H   0.995    C 3359 0.973
  3363  C   3.912    H 3364 0.983    H 3365 0.976    H 3366 0.975    N 3355 0.939
  3364  H   0.998    C 3363 0.983
  3365  H   0.994    C 3363 0.976
  3366  H   0.995    C 3363 0.975
  3367  C   3.882    H 3369 0.970    H 3368 0.965    C 3370 0.958    N 3355 0.872    O 3373 0.066
  3368  H   0.998    C 3367 0.965
  3369  H   0.998    C 3367 0.970
  3370  C   3.947    O 3373 1.018    H 3372 0.973    H 3371 0.963    C 3367 0.958
  3371  H   0.998    C 3370 0.963
  3372  H   0.999    C 3370 0.973
  3373  O   2.041    C 3370 1.018    H 3374 0.756    O  438 0.097    C 3367 0.066
  3374  H   0.973    O 3373 0.756    O  438 0.196
  3375  C   3.910    H 3378 0.974    H 3377 0.973    H 3379 0.970    N 3376 0.936
  3376  N   3.735    C 3380 0.958    C 3375 0.936    C 3384 0.913    C 3388 0.844
  3377  H   0.996    C 3375 0.973
  3378  H   0.997    C 3375 0.974
  3379  H   0.997    C 3375 0.970
  3380  C   3.925    H 3382 0.979    H 3383 0.976    H 3381 0.971    N 3376 0.958
  3381  H   0.996    C 3380 0.971
  3382  H   0.996    C 3380 0.979
  3383  H   0.996    C 3380 0.976
  3384  C   3.889    H 3386 0.973    H 3387 0.971    H 3385 0.970    N 3376 0.913
  3385  H   0.994    C 3384 0.970
  3386  H   0.997    C 3384 0.973
  3387  H   0.995    C 3384 0.971
  3388  C   3.844    C 3391 0.971    H 3390 0.964    H 3389 0.964    N 3376 0.844    O 3394 0.055
  3389  H   0.996    C 3388 0.964
  3390  H   0.998    C 3388 0.964
  3391  C   3.954    O 3394 1.012    C 3388 0.971    H 3392 0.971    H 3393 0.968
  3392  H   0.997    C 3391 0.971
  3393  H   0.999    C 3391 0.968
  3394  O   2.034    C 3391 1.012    H 3395 0.771    O  262 0.096    C 3388 0.055
  3395  H   0.978    O 3394 0.771    O  262 0.193
  3396  C   3.905    H 3400 0.981    H 3398 0.981    H 3399 0.976    N 3397 0.919
  3397  N   3.760    C 3405 0.935    C 3401 0.930    C 3396 0.919    C 3409 0.912
  3398  H   0.997    C 3396 0.981
  3399  H   0.994    C 3396 0.976
  3400  H   0.996    C 3396 0.981
  3401  C   3.903    H 3402 0.980    H 3404 0.979    H 3403 0.960    N 3397 0.930
  3402  H   0.996    C 3401 0.980
  3403  H   0.995    C 3401 0.960
  3404  H   0.996    C 3401 0.979
  3405  C   3.907    H 3406 0.976    H 3408 0.968    H 3407 0.968    N 3397 0.935
  3406  H   0.996    C 3405 0.976
  3407  H   0.992    C 3405 0.968
  3408  H   0.998    C 3405 0.968
  3409  C   3.898    C 3412 0.980    H 3411 0.963    H 3410 0.960    N 3397 0.912
  3410  H   0.995    C 3409 0.960
  3411  H   0.999    C 3409 0.963
  3412  C   3.950    O 3415 1.023    C 3409 0.980    H 3414 0.967    H 3413 0.952
  3413  H   0.998    C 3412 0.952
  3414  H   1.000    C 3412 0.967
  3415  O   2.079    C 3412 1.023    H 3416 0.963
  3416  H   0.975    O 3415 0.963
  3417  C   3.897    H 3421 0.980    H 3420 0.979    H 3419 0.975    N 3418 0.915
  3418  N   3.761    C 3422 0.944    C 3426 0.942    C 3417 0.915    C 3430 0.889
  3419  H   0.994    C 3417 0.975
  3420  H   0.996    C 3417 0.979
  3421  H   0.996    C 3417 0.980
  3422  C   3.919    H 3424 0.978    H 3423 0.977    H 3425 0.973    N 3418 0.944
  3423  H   0.997    C 3422 0.977
  3424  H   0.997    C 3422 0.978
  3425  H   0.994    C 3422 0.973
  3426  C   3.913    H 3429 0.976    H 3427 0.973    H 3428 0.968    N 3418 0.942
  3427  H   0.996    C 3426 0.973
  3428  H   0.995    C 3426 0.968
  3429  H   0.996    C 3426 0.976
  3430  C   3.903    C 3433 0.999    H 3432 0.965    H 3431 0.964    N 3418 0.889
  3431  H   0.996    C 3430 0.964
  3432  H   0.996    C 3430 0.965
  3433  C   3.955    C 3430 0.999    O 3436 0.990    H 3434 0.968    H 3435 0.967
  3434  H   0.997    C 3433 0.968
  3435  H   0.999    C 3433 0.967
  3436  O   2.026    C 3433 0.990    H 3437 0.865    O  795 0.058
  3437  H   0.973    O 3436 0.865    O  795 0.092
  3438  C   3.888    H 3441 0.978    H 3442 0.977    H 3440 0.975    N 3439 0.905
  3439  N   3.745    C 3443 0.933    C 3447 0.930    C 3438 0.905    C 3451 0.902
  3440  H   0.996    C 3438 0.975
  3441  H   0.995    C 3438 0.978
  3442  H   0.995    C 3438 0.977
  3443  C   3.907    H 3444 0.973    H 3446 0.972    H 3445 0.970    N 3439 0.933
  3444  H   0.995    C 3443 0.973
  3445  H   0.995    C 3443 0.970
  3446  H   0.996    C 3443 0.972
  3447  C   3.907    H 3448 0.977    H 3450 0.973    H 3449 0.971    N 3439 0.930
  3448  H   0.998    C 3447 0.977
  3449  H   0.995    C 3447 0.971
  3450  H   0.996    C 3447 0.973
  3451  C   3.892    C 3454 0.972    H 3453 0.972    H 3452 0.956    N 3439 0.902
  3452  H   0.995    C 3451 0.956
  3453  H   0.997    C 3451 0.972
  3454  C   3.959    O 3457 1.021    C 3451 0.972    H 3455 0.968    H 3456 0.967
  3455  H   0.999    C 3454 0.968
  3456  H   0.997    C 3454 0.967
  3457  O   2.079    C 3454 1.021    H 3458 0.957
  3458  H   0.972    O 3457 0.957
  3459  C   3.916    H 3463 0.979    H 3461 0.975    H 3462 0.969    N 3460 0.942
  3460  N   3.744    C 3468 0.942    C 3459 0.942    C 3464 0.939    C 3472 0.843
  3461  H   0.995    C 3459 0.975
  3462  H   0.996    C 3459 0.969
  3463  H   0.998    C 3459 0.979
  3464  C   3.904    H 3467 0.975    H 3465 0.968    H 3466 0.968    N 3460 0.939
  3465  H   0.997    C 3464 0.968
  3466  H   0.995    C 3464 0.968
  3467  H   0.996    C 3464 0.975
  3468  C   3.916    H 3471 0.981    H 3470 0.971    H 3469 0.971    N 3460 0.942
  3469  H   0.994    C 3468 0.971
  3470  H   0.994    C 3468 0.971
  3471  H   0.998    C 3468 0.981
  3472  C   3.850    H 3473 0.973    H 3474 0.966    C 3475 0.942    N 3460 0.843    O 3478 0.074
  3473  H   0.998    C 3472 0.973
  3474  H   0.995    C 3472 0.966
  3475  C   3.951    O 3478 1.051    H 3477 0.960    H 3476 0.958    C 3472 0.942
  3476  H   0.999    C 3475 0.958
  3477  H   0.998    C 3475 0.960
  3478  O   2.035    C 3475 1.051    H 3479 0.674    O  319 0.138    C 3472 0.074
  3479  H   0.974    O 3478 0.674    O  319 0.285
  3480  C   3.892    H 3483 0.973    H 3484 0.970    H 3482 0.967    N 3481 0.920
  3481  N   3.751    C 3485 0.947    C 3480 0.920    C 3489 0.912    C 3493 0.883
  3482  H   0.995    C 3480 0.967
  3483  H   0.997    C 3480 0.973
  3484  H   0.995    C 3480 0.970
  3485  C   3.917    H 3486 0.977    H 3487 0.973    H 3488 0.971    N 3481 0.947
  3486  H   0.998    C 3485 0.977
  3487  H   0.996    C 3485 0.973
  3488  H   0.995    C 3485 0.971
  3489  C   3.888    H 3490 0.980    H 3492 0.967    H 3491 0.963    N 3481 0.912
  3490  H   0.998    C 3489 0.980
  3491  H   0.994    C 3489 0.963
  3492  H   0.996    C 3489 0.967
  3493  C   3.876    C 3496 0.980    H 3495 0.954    H 3494 0.950    N 3481 0.883    O 3499 0.061
  3494  H   0.998    C 3493 0.950
  3495  H   1.000    C 3493 0.954
  3496  C   3.966    O 3499 1.041    C 3493 0.980    H 3497 0.957    H 3498 0.951
  3497  H   0.999    C 3496 0.957
  3498  H   0.999    C 3496 0.951
  3499  O   2.082    C 3496 1.041    H 3500 0.783    O  200 0.080    C 3493 0.061
  3500  H   0.970    O 3499 0.783    O  200 0.167
 
 --------------------------------------------
          xTB calculation for sTDA...
 --------------------------------------------
 
 reading parameter file /home/karl/Software/xtb2/.param_stda2.xtb
 
      method parameters     
 k(s)        :  1.6000
 k(p)        :  2.1800
 k(d)        :  1.9500
 k(f)        :  2.0000
 k(R-V)      :  2.2750
 k(R-R)      :  1.7650
 Tscal       :  0.2580
 Gscal       :  1.0000
 fpol        :  1.0000
 Zcnf        :  0.3430
 Zqf         :  0.0000
 kcn         :  2.7000
 Ryd Hsplit  :  0.7000
 lshift(virt):  3.1000
 lshift(OS)  :  0.2000
 wllscaling  :  2.6000
 
 mowrcut     : 3.000
 
  Z AO/shell   Hii/eV     exponent
  1     Sun Feb 14 09:53:25 CET 2016    EN: 2.327 GAM: 0.473  GM3: 0.0000
     1s    -14.339618    1.220000
     2sp    -3.348946    0.600000
  6     Sun Feb 14 09:53:25 CET 2016    EN: 2.731 GAM: 0.422  GM3: 0.0000
     2s    -22.009312    1.565095
     2p    -13.020408    1.596905
     3sp    -3.914040    0.824500
  7     Sun Feb 14 09:53:25 CET 2016    EN: 3.573 GAM: 0.504  GM3: 0.0000
     2s    -25.722000    2.064844
     2p    -18.684912    1.801692
     3sp    -4.344791    0.921400
  8     Sun Feb 14 09:53:25 CET 2016    EN: 3.700 GAM: 0.587  GM3: 0.0000
     2s    -33.859000    2.418661
     2p    -22.175911    1.973969
     3sp    -4.259392    1.013700
 
 Nbf   :        21625
 T(el) :     0.0
 calculating S/T integrals ...
 cpu time for ints    180.967738000000     
 Nao   :        21625
 making H0...
 making H1...
 cpu time for H       68.9685770000001     
 solving ...
 cpu time for diag    3460.67181800000     
 
 gap (eV)           :   3.114
 Koopmans IP (eV)   :  12.765
 Eel (Eh)           : -7691.679719

          eigenvalues
 #    :        4238       4239       4240       4241       4242       4243       4244       4245
 occ. :        2.000      2.000      2.000      2.000      2.000      2.000      2.000      2.000
 eps  :       -12.821    -12.818    -12.815    -12.810    -12.804    -12.802    -12.791    -12.783
 #    :        4246       4247       4248       4249       4250       4251       4252       4253
 occ. :        2.000      2.000      2.000      2.000      2.000      0.000      0.000      0.000
 eps  :       -12.779    -12.778    -12.778    -12.775    -12.767     -9.652     -9.640     -9.633
 #    :        4254       4255       4256       4257       4258       4259       4260       4261
 occ. :        0.000      0.000      0.000      0.000      0.000      0.000      0.000      0.000
 eps  :        -9.630     -9.628     -9.623     -9.620     -9.603     -9.601     -9.601     -9.601
                            1  SCC done.
 writing mo output ...
 molden style : F
 
speedup  2.98
cpu  time for all    1 h 19 m 13.7 s
wall time for all    0 h 26 m 35.6 s
