 
        ______________________________________
       |                                      |
       |           ==================         |
       |                 x T B                |
       |           ==================         |
       |               S. Grimme              |
       |        Universitaet Bonn, MCTC       |
       |         2015-18, Version 5.8.1       |
       |      Sun Jun  3 17:06:45 CEST 2018   |
       |______________________________________|
 
        This code comes without any warranty
        for non-commercial, academia use only.
        Preliminary GFN2 test version.
        Cite GFN-xTB work as:
        S. Grimme, C. Bannwarth, P. Shushkov
        JCTC, 13 (2017) 1989-2009
        for GFN2:
        C. Bannwarth, S. Ehlert, S. Grimme
        to be published.
        sTDA-xTB:
        S. Grimme  &  C. Bannwarth, JCP 145 (2016) 054103
        in the mass-spec context additionally:
        V. Asgeirsson, C.Bauer, S. Grimme, Chem. Sci. 8 (2017) 4879
 
        with help from
        P. Shushkov, G. Brandenburg, S. Dohm, J. Pisarek,
        F. März, M. Checinski, S. Ehrlich, S. Spicher, 
        P. Pracht, E. Caldeweyher, S. Ehlert, and C. Bannwarth.
 
        usage        :
        xtb <coord_file> [options]
        where <coord_file> is a valid file of TM)
        (*coord, Bohr) or xmol (*xyz, Angstroem)
        format.

        options:
        -chrg <int>   : molecular charge
        -uhf  <int>   : # of unpaired electrons(=2*S)
        -nox          : skip second, extended part in sTDA-xTB
        -pop          : do population analysis
                      : (default for -nox)
        -mowr <real>  : cut MO write above (def.3 Eh)
        -molden       : write formatted molden file
        -parx <file>  : read parameters for sTDA-xTB
                        calc (def:~/.param_stda2.xtb)
        -parv <file>  : read parameters for vTB part in
                        sTDA-xTB (def: ~/.param_stda1.xtb)
        -xtemp <real> : el. temp for xTB (def. 0 K)
        -etemp <real> : el. temp for GFN (def. 300 K)
        -fod          : calculate the FOD and write
                        molden.input file with
                        appropriate occupations
                        for plotting. Def. T=12500 K
 
        -gfn1         : use GFN-xTB
        -gfn2         : use GFN2-xTB
        -gfn2d3       : GFN2-xTB with D3 instead of D4
        -grad         : GFNn-xTB gradient
        -acc <real>   : GFNn-xTB accuracy (def. 1.0)
        -opt [level]  : optimize at GFNn-xTB
                      : level=crude,vloose,loose,
                      :       tight,vtight
        -hess         : compute Hessian at GFNn-xTB
        -ohess        : optimize and compute Hessian
        -omd          : optimize and do MD
        -siman        : conformational search
        -screen       : opt. loop over ensemble
        -gmd          : annealed MD for GMD procedure
        -modef        : vib mode following
        -gbsa [string1] [string2]
                        use GBSA implicit solvent
                        for solvent [string1] and
                        solvation state [string2]=
                        reference, bar1M (default=1M)
        additional GFN/opt/MD/siman options read from
        $XTBHOME/.xtbrc or $set in coordinate file
 
       spin and charge state information can be on:
       <.CHRG> (charge) and <.UHF> (=nalpha-nbeta)
       -uhf and -chrg override the file info.
       useful machine settings:
       setenv MKL_NUM_THREADS <NCORE_ON_YOUR_MACHINE>
       setenv OMP_STACKSIZE 500m
       limit stacksize unlimited
 
       total energies in Eh, gaps/HL energies in eV
       please read REVISION and HOWTO files carefully
         180  days left until this code expires
 =============================
  # OMP threads =           8
 =============================
 
 xtbhome directory:/home/karl/Software/xtb2/
 
 
 name of molecule           :
 comment line               :
 number of atoms            :  2800
 number of electrons        :  6800
 charge                     :  0
 spin                       : 0.0
 first test random number   :  0.0306
 
 -----------------------------------------
      charge density (VTB) calculation
 -----------------------------------------
 
      method parameters     
 k(s)        :  1.8000
 k(p)        :  2.8350
 k(d)        :  2.0860
 k(f)        :  2.0000
 Tscal       :  0.3300
 Gscal       :  0.3910
 fpol        :  1.0000
 Zcnf        :  0.6500
 Zqf         :  0.0000
 kcn         :  0.3000
 kEN1        : -0.5900
 wllscal     :  2.6000
 
     -------------------------
     ! NO SOLVENT MODEL USED !
     -------------------------
 
 doing EN charges ...
 sum q : -0.8215650D-14
 point charge moment (au)
     X       Y       Z   
   0.8199  -1.0286  -3.2240  total (Debye):    8.851
 
            Z      q(EN)   CN      Cart. coordinates
     1  C   4.0   -0.25    4.03    36.75517    31.04820    15.93039
     2  C   4.0    0.18    3.02    36.47171    28.96950    17.91460
     3  O   6.0   -0.08    1.04    38.43703    28.04353    19.02954
     4  O   6.0   -0.11    1.13    34.26073    28.40258    18.36814
     5  H   1.0    0.09    1.00    35.16780    32.27652    16.23275
     6  H   1.0    0.07    1.00    36.50951    30.21672    14.00287
     7  H   1.0    0.08    1.00    38.58820    31.95527    15.98708
     8  C   4.0   -0.25    4.03    19.55866    40.27006    44.04951
     9  C   4.0    0.20    3.02    20.59801    40.87477    41.40390
    10  O   6.0   -0.12    1.28    21.90192    39.24961    40.28896
    11  O   6.0   -0.10    1.06    20.04999    42.95347    40.47793
    12  H   1.0    0.08    1.00    20.29566    38.43703    44.57864
    13  H   1.0    0.07    0.99    17.44217    40.30785    43.97392
    14  H   1.0    0.10    1.01    20.20117    41.70625    45.27783
    15  C   4.0   -0.29    4.06    17.17761     3.40151     3.59048
    16  C   4.0    0.18    3.02    15.02332     4.93218     4.38416
    17  O   6.0   -0.09    1.06    12.92573     4.02512     3.81725
    18  O   6.0   -0.08    1.10    15.55244     6.93529     5.66918
    19  H   1.0    0.10    1.01    17.70673     4.13850     1.81414
    20  H   1.0    0.09    1.01    18.63270     3.70386     4.96998
    21  H   1.0    0.09    1.00    17.02643     1.39840     3.45820
    22  C   4.0   -0.25    4.04    36.13156    13.34147    37.13311
    23  C   4.0    0.20    3.01    36.77407    12.11314    39.70314
    24  O   6.0   -0.11    1.10    35.50795    12.86903    41.51728
    25  O   6.0   -0.10    1.06    38.51261    10.58247    39.72204
    26  H   1.0    0.09    1.00    36.58509    12.49109    35.33788
    27  H   1.0    0.07    1.00    34.05286    13.60603    37.32209
    28  H   1.0    0.09    1.00    36.96304    15.17450    37.03863
    29  C   4.0   -0.26    4.04    17.87681    29.83877    45.97703
    30  C   4.0    0.20    3.02    18.85946    29.83877    43.27472
    31  O   6.0   -0.10    1.10    21.10824    30.51907    43.02906
    32  O   6.0   -0.11    1.09    17.44217    29.42303    41.51728
    33  H   1.0    0.08    1.00    17.12092    28.00574    46.54395
    34  H   1.0    0.09    1.00    16.32723    31.10489    46.16600
    35  H   1.0    0.08    1.00    19.16182    30.63246    47.35653
    36  C   4.0   -0.26    4.04    44.23848    55.78471    37.18981
    37  C   4.0    0.22    3.02    46.94079    55.31228    37.96459
    38  O   6.0   -0.10    1.06    47.96124    56.78626    39.43858
    39  O   6.0   -0.12    1.17    47.94235    53.51704    36.94414
    40  H   1.0    0.07    1.00    43.48259    53.91388    36.54730
    41  H   1.0    0.11    1.01    43.18024    56.37053    38.72048
    42  H   1.0    0.07    1.00    44.33297    57.01303    35.50795
    43  C   4.0   -0.22    4.03    17.93350    17.89570    27.79787
    44  C   4.0    0.18    3.01    19.70984    16.47841    29.55531
    45  O   6.0   -0.10    1.06    20.33345    17.65004    31.46394
    46  O   6.0   -0.08    1.05    20.59801    14.41861    28.64825
    47  H   1.0    0.07    1.00    15.93039    17.30989    27.94905
    48  H   1.0    0.07    0.99    18.50042    18.02799    25.75696
    49  H   1.0    0.08    1.00    18.12247    19.91771    28.27030
    50  C   4.0   -0.27    4.03     4.45975    42.89678    16.64849
    51  C   4.0    0.19    3.02     6.82191    42.67001    15.00442
    52  O   6.0   -0.09    1.07     6.67073    42.23537    12.68006
    53  O   6.0   -0.11    1.15     8.88171    42.70781    16.13826
    54  H   1.0    0.08    1.00     4.15740    41.13933    17.66894
    55  H   1.0    0.09    1.00     2.77790    43.04796    15.55244
    56  H   1.0    0.09    1.00     4.42196    44.46525    17.93350
    57  C   4.0   -0.24    4.02    32.52218    16.47841    50.49348
    58  C   4.0    0.18    3.02    30.65135    17.06423    52.55328
    59  O   6.0   -0.10    1.05    29.40414    15.40127    53.63042
    60  O   6.0   -0.09    1.11    30.31120    19.36969    53.15799
    61  H   1.0    0.09    1.00    34.14735    17.61225    50.96591
    62  H   1.0    0.07    1.00    33.27807    14.56979    50.89032
    63  H   1.0    0.08    1.00    31.93637    16.68628    48.50927
    64  C   4.0   -0.26    4.04     7.23765    18.19806    51.04150
    65  C   4.0    0.19    3.01     6.08492    17.29099    53.53594
    66  O   6.0   -0.09    1.04     4.68652    15.42016    53.61153
    67  O   6.0   -0.09    1.11     6.63294    18.80277    55.29338
    68  H   1.0    0.08    1.00     9.18407    17.57445    50.72024
    69  H   1.0    0.09    1.00     7.29434    20.22007    51.13598
    70  H   1.0    0.09    1.00     6.10381    17.82012    49.39744
    71  C   4.0   -0.26    4.04    45.52350    31.87968    50.24781
    72  C   4.0    0.18    3.01    43.69046    31.84188    52.42100
    73  O   6.0   -0.09    1.05    42.91568    33.92058    53.21468
    74  O   6.0   -0.09    1.05    42.95347    29.72539    53.21468
    75  H   1.0    0.08    1.00    45.71247    33.80720    49.56751
    76  H   1.0    0.09    1.00    47.37543    31.44504    50.96591
    77  H   1.0    0.08    1.00    45.12666    30.65135    48.64155
    78  C   4.0   -0.32    4.06     9.56201    30.33010     5.53690
    79  C   4.0    0.22    3.02     6.76522    30.34900     5.15895
    80  O   6.0   -0.12    1.20     5.51800    31.18048     6.91640
    81  O   6.0   -0.11    1.07     5.91484    29.83877     3.09915
    82  H   1.0    0.08    1.01     9.92106    28.30809     5.70697
    83  H   1.0    0.12    1.01    10.54467    31.08599     4.06291
    84  H   1.0    0.11    1.00    10.33680    31.06709     7.18096
    85  C   4.0   -0.24    4.05    45.44791     6.40617    40.89367
    86  C   4.0    0.19    3.01    47.18646     7.89905    39.26851
    87  O   6.0   -0.09    1.05    48.16911     6.91640    37.35988
    88  O   6.0   -0.09    1.07    47.50771    10.09114    40.09998
    89  H   1.0    0.08    1.00    46.29829     6.29279    42.76450
    90  H   1.0    0.07    1.00    43.63377     7.38883    41.23382
    91  H   1.0    0.07    1.00    45.01327     4.53534    40.08109
    92  C   4.0   -0.23    4.04    33.10800     2.28657    28.45927
    93  C   4.0    0.18    3.02    31.46394     4.40306    29.25296
    94  O   6.0   -0.10    1.14    29.53642     4.74321    27.89236
    95  O   6.0   -0.10    1.10    32.10644     5.80146    31.06709
    96  H   1.0    0.07    0.99    31.97416     0.64251    27.76007
    97  H   1.0    0.08    1.00    34.31742     3.00466    26.96639
    98  H   1.0    0.07    1.00    34.26073     1.60627    30.08444
    99  C   4.0   -0.23    4.03     8.84392     5.80146    29.32855
   100  C   4.0    0.18    3.01     6.70853     7.50221    28.51596
   101  O   6.0   -0.10    1.08     7.38883     9.65650    27.85456
   102  O   6.0   -0.08    1.05     4.45975     6.63294    28.49707
   103  H   1.0    0.07    1.00     8.16362     3.91173    29.89546
   104  H   1.0    0.08    1.00     9.93996     6.82191    30.76474
   105  H   1.0    0.07    0.99    10.16673     5.38572    27.74118
   106  C   4.0   -0.23    4.01    34.29853    48.28250    25.92704
   107  C   4.0    0.18    3.01    34.69537    46.99748    28.51596
   108  O   6.0   -0.09    1.06    36.11266    48.11242    30.02775
   109  O   6.0   -0.08    1.05    33.71271    44.89989    29.13957
   110  H   1.0    0.09    1.00    33.12690    49.90766    26.21050
   111  H   1.0    0.08    1.00    33.24028    46.99748    24.67982
   112  H   1.0    0.06    0.99    36.24494    48.83052    25.17115
   113  C   4.0   -0.27    4.01    11.71630    53.53594    13.90838
   114  C   4.0    0.17    3.01    11.79189    55.61463    16.02488
   115  O   6.0   -0.09    1.05    11.18718    57.86341    15.60914
   116  O   6.0   -0.08    1.05    12.64227    55.06661    18.19806
   117  H   1.0    0.11    1.01    11.07379    51.89187    14.72097
   118  H   1.0    0.08    1.00    10.58247    54.06506    12.24542
   119  H   1.0    0.08    1.00    13.62492    53.53594    13.09580
   120  C   4.0   -0.27    4.06     7.59670    42.63222    38.73938
   121  C   4.0    0.20    3.03     4.98888    41.49838    38.68269
   122  O   6.0   -0.11    1.09     4.89439    39.24961    38.17246
   123  O   6.0   -0.10    1.06     3.25033    43.02906    39.04174
   124  H   1.0    0.08    1.00     7.38883    44.33297    39.89211
   125  H   1.0    0.08    1.00     8.86281    41.40390    39.81653
   126  H   1.0    0.11    1.01     7.99354    42.87788    36.83076
   127  C   4.0   -0.20    4.00    18.72718    39.81653     5.49910
   128  C   4.0    0.20    3.01    16.36503    39.77873     3.93063
   129  O   6.0   -0.11    1.07    14.49420    40.83698     4.70542
   130  O   6.0   -0.08    1.06    16.42172    38.73938     1.77634
   131  H   1.0    0.05    0.97    20.10668    38.05908     5.34792
   132  H   1.0    0.06    0.99    18.04688    39.96770     7.54001
   133  H   1.0    0.09    1.00    19.69094    41.53618     5.00777
   134  C   4.0   -0.26    4.04     6.53845    17.15871    27.70338
   135  C   4.0    0.17    3.02     5.23454    19.31300    28.93170
   136  O   6.0   -0.09    1.05     3.15584    18.95395    30.04664
   137  O   6.0   -0.09    1.06     6.29279    21.44839    28.66714
   138  H   1.0    0.09    1.00     8.42818    17.55555    27.04198
   139  H   1.0    0.08    1.00     7.04868    15.57134    28.93170
   140  H   1.0    0.09    1.00     5.38572    16.23275    26.30499
   141  C   4.0   -0.28    4.04     4.83770    38.32364     4.10071
   142  C   4.0    0.21    3.01     4.98888    40.72359     2.51334
   143  O   6.0   -0.10    1.07     7.10537    41.21492     1.66296
   144  O   6.0   -0.11    1.06     3.19364    42.12199     2.21098
   145  H   1.0    0.10    1.00     5.19675    36.64179     3.13695
   146  H   1.0    0.09    1.00     6.14161    38.47482     5.63138
   147  H   1.0    0.08    1.00     2.98577    38.05908     4.96998
   148  C   4.0   -0.26    4.03    43.59598    43.14244    12.50999
   149  C   4.0    0.18    3.01    42.53773    42.15979    14.98553
   150  O   6.0   -0.09    1.05    40.23227    42.49994    15.47686
   151  O   6.0   -0.10    1.15    43.95503    40.83698    16.40282
   152  H   1.0    0.08    1.00    45.63688    42.89678    12.33991
   153  H   1.0    0.08    1.00    42.72670    42.12199    10.96041
   154  H   1.0    0.09    1.00    43.25583    45.12666    12.26432
   155  C   4.0   -0.23    4.03    29.97105    53.68711    15.49575
   156  C   4.0    0.19    3.02    31.59622    55.78471    14.39971
   157  O   6.0   -0.09    1.05    31.97416    55.80361    12.05645
   158  O   6.0   -0.10    1.06    32.57888    57.27759    15.91149
   159  H   1.0    0.08    1.00    28.28920    54.59418    16.32723
   160  H   1.0    0.06    0.99    31.12379    52.49659    16.85636
   161  H   1.0    0.09    1.00    29.27185    52.47769    14.02177
   162  C   4.0   -0.26    4.03     3.06136    52.04305    33.14579
   163  C   4.0    0.18    3.02     3.64717    53.04461    30.53797
   164  O   6.0   -0.08    1.07     5.27234    54.87764    30.27341
   165  O   6.0   -0.12    1.45     2.53223    51.94857    28.74273
   166  H   1.0    0.08    1.00     4.59203    52.66666    34.35522
   167  H   1.0    0.09    1.00     1.09604    52.36431    33.46705
   168  H   1.0    0.08    1.00     3.02356    49.98325    32.91903
   169  C   4.0   -0.26    4.02    33.61822    17.74453    32.42770
   170  C   4.0    0.21    3.01    32.01196    17.59335    29.91436
   171  O   6.0   -0.10    1.07    29.68759    17.42327    30.12223
   172  O   6.0   -0.11    1.06    32.99462    17.36658    27.87346
   173  H   1.0    0.08    1.00    32.35211    16.91305    33.80720
   174  H   1.0    0.10    1.00    34.24183    19.61536    32.63557
   175  H   1.0    0.08    1.00    35.30008    16.55400    32.25762
   176  C   4.0   -0.23    4.02    41.10154     7.27544    19.46418
   177  C   4.0    0.20    3.02    43.21803     6.93529    17.53666
   178  O   6.0   -0.10    1.06    43.52039     5.02667    16.27054
   179  O   6.0   -0.10    1.07    44.71092     8.71164    17.23430
   180  H   1.0    0.08    1.00    41.74405     9.01399    20.39014
   181  H   1.0    0.08    1.00    39.30630     7.23765    18.40593
   182  H   1.0    0.07    1.00    41.17713     5.95264    21.08934
   183  C   4.0   -0.28    4.04    34.09066    42.19758    43.10465
   184  C   4.0    0.20    3.02    32.48439    43.48259    41.17713
   185  O   6.0   -0.10    1.07    31.06709    42.08420    39.92991
   186  O   6.0   -0.10    1.06    32.38990    45.80696    40.95036
   187  H   1.0    0.06    0.99    36.07487    41.78184    42.34876
   188  H   1.0    0.11    1.01    34.48750    43.29362    44.67312
   189  H   1.0    0.10    1.00    33.39146    40.53462    43.93613
   190  C   4.0   -0.24    4.02    41.40390    31.69070     3.83614
   191  C   4.0    0.19    3.00    43.55818    31.57732     5.85815
   192  O   6.0   -0.10    1.05    45.69357    32.35211     5.44241
   193  O   6.0   -0.09    1.09    42.80229    30.74584     7.99354
   194  H   1.0    0.07    1.00    41.51728    33.44815     2.70231
   195  H   1.0    0.09    1.00    41.38500    30.10333     2.60782
   196  H   1.0    0.07    1.00    39.45748    31.33166     4.53534
   197  C   4.0   -0.26    4.05     9.71319     3.96842    37.30319
   198  C   4.0    0.19    3.02     9.41084     5.32903    39.72204
   199  O   6.0   -0.09    1.07    10.71475     4.45975    41.47948
   200  O   6.0   -0.09    1.05     7.95575     7.19986    39.79763
   201  H   1.0    0.07    1.00    11.33836     2.66451    37.49216
   202  H   1.0    0.10    1.00    10.22342     5.12116    35.75361
   203  H   1.0    0.08    1.00     8.18251     2.70231    36.77407
   204  C   4.0   -0.22    4.03     3.15584    31.65291    52.66666
   205  C   4.0    0.21    3.02     4.55424    31.29386    50.24781
   206  O   6.0   -0.12    1.10     5.53690    33.08910    49.22736
   207  O   6.0   -0.10    1.10     5.06447    29.10178    49.60531
   208  H   1.0    0.08    1.00     1.17163    31.42614    52.13754
   209  H   1.0    0.07    0.99     3.23143    33.67492    53.29027
   210  H   1.0    0.07    0.99     3.72276    30.36790    54.23513
   211  C   4.0   -0.27    4.06    43.06685    26.77742    29.78208
   212  C   4.0    0.22    3.02    43.38811    24.26408    31.06709
   213  O   6.0   -0.13    1.08    43.61487    24.41526    33.29697
   214  O   6.0   -0.09    1.06    43.59598    22.29877    29.78208
   215  H   1.0    0.09    1.00    44.82430    27.59000    29.21516
   216  H   1.0    0.08    1.00    42.29207    27.94905    31.31276
   217  H   1.0    0.09    1.01    41.81964    26.47506    28.23251
   218  C   4.0   -0.22    4.04    29.72539    39.24961     5.38572
   219  C   4.0    0.19    3.02    28.61045    41.47948     6.68963
   220  O   6.0   -0.09    1.12    29.95216    42.55663     8.37149
   221  O   6.0   -0.10    1.06    26.72072    42.42435     5.70697
   222  H   1.0    0.07    1.00    28.55376    38.38033     3.89284
   223  H   1.0    0.07    1.00    30.38679    37.75672     6.72742
   224  H   1.0    0.07    1.00    31.48283    39.92991     4.44086
   225  C   4.0   -0.24    4.01    20.59801    52.32651    37.00083
   226  C   4.0    0.16    3.00    20.74919    54.55639    38.96615
   227  O   6.0   -0.08    1.05    20.56022    53.78160    41.27161
   228  O   6.0   -0.08    1.03    20.97596    56.86185    38.28585
   229  H   1.0    0.09    1.00    22.12869    51.09819    37.41657
   230  H   1.0    0.08    1.00    20.56022    53.02571    35.07331
   231  H   1.0    0.07    0.99    18.82167    51.17378    37.28429
   232  C   4.0   -0.27    4.05    49.30295    32.37101    30.31120
   233  C   4.0    0.20    3.01    50.60686    30.89702    28.23251
   234  O   6.0   -0.10    1.05    52.77816    30.14113    28.64825
   235  O   6.0   -0.10    1.06    49.17067    30.19782    26.53175
   236  H   1.0    0.11    1.01    50.39899    32.37101    31.91747
   237  H   1.0    0.07    1.00    47.31874    31.72850    30.55687
   238  H   1.0    0.08    1.00    49.43523    34.37412    29.76318
   239  C   4.0   -0.24    4.03     5.66918    50.19112    14.73986
   240  C   4.0    0.18    3.02     2.85349    50.66355    14.64538
   241  O   6.0   -0.09    1.06     1.68186    49.37854    13.02021
   242  O   6.0   -0.09    1.05     1.85193    52.34541    15.98708
   243  H   1.0    0.07    1.00     6.46286    50.66355    16.61069
   244  H   1.0    0.08    1.00     6.10381    48.33919    13.90838
   245  H   1.0    0.09    1.01     6.36838    51.66511    13.53044
   246  C   4.0   -0.24    4.03    44.97548    27.17426    43.76605
   247  C   4.0    0.20    3.02    43.78495    29.55531    42.80229
   248  O   6.0   -0.09    1.07    41.40390    29.72539    42.99127
   249  O   6.0   -0.11    1.06    44.97548    31.33166    41.97081
   250  H   1.0    0.06    0.99    44.10620    26.43727    45.58019
   251  H   1.0    0.08    1.00    44.57864    25.73807    42.31096
   252  H   1.0    0.09    1.00    46.95969    27.17426    44.03061
   253  C   4.0   -0.25    4.02     4.81880    55.87920    48.81162
   254  C   4.0    0.19    3.01     2.38105    55.04772    50.13443
   255  O   6.0   -0.09    1.05     0.75589    53.85719    48.92500
   256  O   6.0   -0.09    1.05     2.21098    55.31228    52.47769
   257  H   1.0    0.07    1.00     6.46286    54.87764    49.62420
   258  H   1.0    0.10    1.00     4.72431    55.23669    46.92190
   259  H   1.0    0.07    0.99     5.14005    57.95789    48.83052
   260  C   4.0   -0.22    4.01     6.68963    55.23669     7.35103
   261  C   4.0    0.20    3.00     4.47865    56.29494     5.74477
   262  O   6.0   -0.09    1.05     3.40151    54.82095     4.25188
   263  O   6.0   -0.10    1.05     3.98732    58.54371     5.85815
   264  H   1.0    0.07    0.99     7.82347    53.74381     6.40617
   265  H   1.0    0.08    1.00     5.76366    54.59418     9.07068
   266  H   1.0    0.06    0.99     8.08803    56.76737     7.89905
   267  C   4.0   -0.24    4.03    41.51728    56.21935     3.13695
   268  C   4.0    0.20    3.02    43.61487    55.29338     4.81880
   269  O   6.0   -0.10    1.06    45.52350    54.51859     3.72276
   270  O   6.0   -0.11    1.20    43.38811    55.23669     7.14316
   271  H   1.0    0.08    1.00    40.08109    54.72646     3.11805
   272  H   1.0    0.08    1.00    42.19758    56.52170     1.20942
   273  H   1.0    0.08    1.00    40.76139    57.99569     3.91173
   274  C   4.0   -0.27    4.05    15.91149     2.04090    27.26875
   275  C   4.0    0.20    3.02    17.19651     4.02512    25.64358
   276  O   6.0   -0.10    1.11    15.93039     5.99043    25.47351
   277  O   6.0   -0.10    1.05    19.14292     3.45820    24.52864
   278  H   1.0    0.10    1.00    16.45951     0.17008    26.98529
   279  H   1.0    0.08    1.00    16.55400     2.49444    29.17737
   280  H   1.0    0.08    1.00    13.85169     2.21098    27.34433
   281  C   4.0   -0.23    4.02     6.76522    12.13204     7.84236
   282  C   4.0    0.18    3.01     4.04401    11.35725     7.46442
   283  O   6.0   -0.08    1.05     2.43775    12.52888     8.82502
   284  O   6.0   -0.09    1.05     3.47710     9.71319     5.89594
   285  H   1.0    0.08    1.00     8.12582    10.75254     7.12427
   286  H   1.0    0.09    1.00     7.27544    11.98086     9.78878
   287  H   1.0    0.06    0.98     6.93529    14.19184     7.10537
   288  C   4.0   -0.27    4.03     7.27544    26.28609    11.01710
   289  C   4.0    0.21    3.02     8.10692    23.52709    11.43284
   290  O   6.0   -0.11    1.13     8.29590    22.82789    13.64382
   291  O   6.0   -0.11    1.12     8.61715    22.18538     9.59981
   292  H   1.0    0.10    1.00     8.78723    27.59000    10.88482
   293  H   1.0    0.07    1.00     6.16051    26.68293    12.75565
   294  H   1.0    0.10    1.00     5.99043    26.53175     9.50532
   295  C   4.0   -0.25    4.03    41.76294    47.86676     3.23143
   296  C   4.0    0.17    3.02    41.23382    45.58019     4.87549
   297  O   6.0   -0.10    1.29    38.89056    45.14555     5.27234
   298  O   6.0   -0.09    1.19    43.16134    44.40856     5.80146
   299  H   1.0    0.07    1.00    43.53929    48.90611     3.59048
   300  H   1.0    0.08    1.00    41.53618    47.45102     1.22832
   301  H   1.0    0.09    1.00    40.40234    49.30295     3.72276
   302  C   4.0   -0.22    4.03    17.91460    16.47841    20.86257
   303  C   4.0    0.20    3.02    15.74142    17.83901    19.67205
   304  O   6.0   -0.11    1.07    16.25164    19.63425    18.33034
   305  O   6.0   -0.09    1.06    13.51154    17.08312    20.01220
   306  H   1.0    0.08    1.00    18.74608    15.49575    19.23741
   307  H   1.0    0.06    0.99    19.55866    17.65004    21.58067
   308  H   1.0    0.07    1.00    17.36658    15.19340    22.43105
   309  C   4.0   -0.29    4.05     5.40462    17.80122    40.17557
   310  C   4.0    0.18    3.02     7.35103    16.53510    41.70625
   311  O   6.0   -0.09    1.09     9.24076    15.59024    40.55352
   312  O   6.0   -0.10    1.08     6.85971    16.10047    43.95503
   313  H   1.0    0.11    1.01     3.85504    16.70518    39.75983
   314  H   1.0    0.09    1.00     6.10381    18.65160    38.49372
   315  H   1.0    0.08    1.00     4.95108    19.52087    41.21492
   316  C   4.0   -0.23    4.02    37.01973    52.02416    20.29566
   317  C   4.0    0.19    3.02    39.72204    51.32496    19.87992
   318  O   6.0   -0.10    1.07    40.76139    49.81318    21.33501
   319  O   6.0   -0.09    1.06    40.98816    52.32651    18.14137
   320  H   1.0    0.09    1.01    36.13156    50.19112    20.22007
   321  H   1.0    0.07    0.99    36.52840    52.59107    22.27987
   322  H   1.0    0.07    0.99    36.16935    53.40366    18.93505
   323  C   4.0   -0.28    4.04    49.79428    18.36814    40.34565
   324  C   4.0    0.17    3.02    47.96124    19.08623    42.40545
   325  O   6.0   -0.09    1.12    46.41167    20.84368    41.87633
   326  O   6.0   -0.08    1.05    48.07463    18.00909    44.55974
   327  H   1.0    0.11    1.01    51.32307    19.59646    40.49683
   328  H   1.0    0.09    1.00    49.24626    18.57601    38.39923
   329  H   1.0    0.08    1.00    50.38009    16.42172    40.64801
   330  C   4.0   -0.25    4.03    20.65470    55.48235    26.22940
   331  C   4.0    0.18    3.02    20.63581    53.04461    27.68449
   332  O   6.0   -0.09    1.06    19.65315    51.09819    26.72072
   333  O   6.0   -0.11    1.18    21.78854    52.96902    29.74429
   334  H   1.0    0.08    1.00    21.58067    57.05083    27.19316
   335  H   1.0    0.09    1.00    18.76498    55.97368    25.71917
   336  H   1.0    0.07    1.00    21.75075    55.19889    24.47195
   337  C   4.0   -0.27    4.04    31.76629     4.32747    15.11781
   338  C   4.0    0.20    3.01    31.99306     6.44397    17.08312
   339  O   6.0   -0.11    1.06    30.34900     6.67073    18.67049
   340  O   6.0   -0.09    1.06    34.16625     7.36993    17.21540
   341  H   1.0    0.08    1.00    29.81988     3.68497    15.06112
   342  H   1.0    0.07    1.00    32.44659     5.12116    13.30367
   343  H   1.0    0.11    1.01    32.90013     2.83459    15.60914
   344  C   4.0   -0.24    4.03    20.65470     5.40462    52.51548
   345  C   4.0    0.19    3.01    19.86102     4.02512    50.17222
   346  O   6.0   -0.10    1.06    20.54132     4.79990    48.09353
   347  O   6.0   -0.09    1.06    18.36814     2.19208    50.49348
   348  H   1.0    0.08    1.00    20.18227     4.78101    54.42411
   349  H   1.0    0.08    1.00    22.71451     5.55579    52.34541
   350  H   1.0    0.08    1.00    19.78543     7.29434    52.38320
   351  C   4.0   -0.29    4.07    30.85922    29.29075    52.76115
   352  C   4.0    0.18    3.03    31.01040    31.16158    50.77694
   353  O   6.0   -0.08    1.06    28.89391    32.08755    50.02105
   354  O   6.0   -0.11    1.19    33.20248    31.74740    50.09663
   355  H   1.0    0.10    1.01    32.54108    29.51752    53.78160
   356  H   1.0    0.10    1.01    29.30965    29.63090    53.97057
   357  H   1.0    0.08    1.00    30.80253    27.40103    51.94857
   358  C   4.0   -0.24    4.05    29.42303    50.89032    51.41944
   359  C   4.0    0.22    3.02    27.89236    52.93122    50.22892
   360  O   6.0   -0.15    1.34    28.91281    54.95323    50.03994
   361  O   6.0   -0.09    1.06    25.58689    52.57218    49.85097
   362  H   1.0    0.08    1.00    30.68915    51.77849    52.79894
   363  H   1.0    0.09    1.00    30.46238    50.03994    49.88877
   364  H   1.0    0.07    0.99    28.28920    49.24626    52.15644
   365  C   4.0   -0.24    4.02    29.64980    20.82478    41.10154
   366  C   4.0    0.19    3.01    30.70805    23.56488    41.19603
   367  O   6.0   -0.10    1.20    29.12068    25.36012    41.38500
   368  O   6.0   -0.10    1.05    32.99462    23.79165    40.81808
   369  H   1.0    0.08    1.00    29.61201    19.86102    42.93457
   370  H   1.0    0.09    1.00    30.59466    19.70984    39.72204
   371  H   1.0    0.07    1.00    27.64669    20.90037    40.42124
   372  C   4.0   -0.29    4.05    43.69046    18.25475     6.85971
   373  C   4.0    0.18    3.02    45.20224    20.52242     6.02823
   374  O   6.0   -0.09    1.05    44.14400    22.63892     6.31168
   375  O   6.0   -0.09    1.05    47.46992    20.14448     5.46131
   376  H   1.0    0.11    1.01    43.29362    17.02643     5.38572
   377  H   1.0    0.08    1.00    41.93302    18.84057     7.72898
   378  H   1.0    0.09    1.01    44.84320    17.51776     8.33369
   379  C   4.0   -0.27    4.04     5.49910    26.26719    42.68891
   380  C   4.0    0.18    3.02     6.02823    27.24985    40.06219
   381  O   6.0   -0.09    1.05     6.57625    25.66248    38.38033
   382  O   6.0   -0.09    1.06     5.99043    29.61201    39.85432
   383  H   1.0    0.11    1.01     6.91640    27.09867    43.74716
   384  H   1.0    0.07    1.00     5.51800    24.16959    42.70781
   385  H   1.0    0.08    1.00     3.68497    26.92859    43.36921
   386  C   4.0   -0.25    4.04    44.93768     3.76055     7.52111
   387  C   4.0    0.19    3.02    42.95347     5.53690     6.53845
   388  O   6.0   -0.10    1.16    43.29362     7.88016     6.65184
   389  O   6.0   -0.09    1.06    41.00705     4.45975     5.74477
   390  H   1.0    0.09    1.01    44.21959     3.13695     9.29745
   391  H   1.0    0.07    1.00    46.67623     4.81880     7.99354
   392  H   1.0    0.08    1.00    45.29673     2.15429     6.25499
   393  C   4.0   -0.29    4.04    29.81988    30.31120    33.90168
   394  C   4.0    0.17    3.01    28.68604    29.38524    31.38835
   395  O   6.0   -0.09    1.12    29.95216    27.76007    30.16003
   396  O   6.0   -0.08    1.05    26.58844    30.42459    30.80253
   397  H   1.0    0.12    1.00    31.63401    30.99151    33.84499
   398  H   1.0    0.08    1.00    28.62935    31.69070    34.84655
   399  H   1.0    0.08    1.00    29.64980    28.74273    35.20559
   400  C   4.0   -0.27    4.02    45.97703    43.93613    48.62265
   401  C   4.0    0.22    3.01    48.18801    42.02751    48.66044
   402  O   6.0   -0.10    1.07    47.79117    39.75983    48.45257
   403  O   6.0   -0.11    1.07    50.32340    42.70781    49.07618
   404  H   1.0    0.11    1.00    46.07152    45.35342    49.96435
   405  H   1.0    0.09    1.00    44.35187    42.72670    48.62265
   406  H   1.0    0.07    0.99    46.03372    44.82430    46.69513
   407  C   4.0   -0.28    4.05    48.49037     0.56692    19.82323
   408  C   4.0    0.19    3.01    47.82896    -1.02990    22.09090
   409  O   6.0   -0.09    1.05    46.88410    -0.06614    24.01842
   410  O   6.0   -0.10    1.06    48.09353    -3.31647    21.67516
   411  H   1.0    0.09    1.00    50.38009     0.60471    19.10513
   412  H   1.0    0.10    1.00    48.05573     2.51334    19.87992
   413  H   1.0    0.09    1.00    47.33764     0.13228    18.21696
   414  C   4.0   -0.22    4.01     7.71008     5.34792    48.79272
   415  C   4.0    0.19    3.01     5.40462     4.27078    50.22892
   416  O   6.0   -0.10    1.05     3.55268     5.55579    50.83363
   417  O   6.0   -0.09    1.06     5.46131     2.00311    50.85253
   418  H   1.0    0.07    0.99     7.02978     7.06758    47.77227
   419  H   1.0    0.07    1.00     8.40928     3.96842    47.37543
   420  H   1.0    0.08    1.00     9.37304     5.57469    50.02105
   421  C   4.0   -0.21    4.01     9.14627    46.65733    27.11757
   422  C   4.0    0.19    3.02    10.09114    44.16290    26.05932
   423  O   6.0   -0.11    1.20     8.76833    42.19758    26.22940
   424  O   6.0   -0.09    1.06    12.33991    43.97392    25.34122
   425  H   1.0    0.08    1.00    10.88482    47.71558    27.55220
   426  H   1.0    0.08    1.00     7.89905    47.84786    25.96483
   427  H   1.0    0.06    0.98     8.01244    46.20380    28.93170
   428  C   4.0   -0.24    4.03    20.61691    53.51704    15.17450
   429  C   4.0    0.19    3.01    22.24207    55.40676    16.62959
   430  O   6.0   -0.09    1.06    22.88458    54.78316    18.80277
   431  O   6.0   -0.10    1.06    22.92238    57.33429    15.51465
   432  H   1.0    0.07    1.00    21.20273    51.57062    15.68473
   433  H   1.0    0.09    1.00    20.76809    54.08396    13.22808
   434  H   1.0    0.08    1.00    18.61380    53.98947    15.42016
   435  C   4.0   -0.23    4.03    33.82609    54.85874    29.32855
   436  C   4.0    0.18    3.01    35.52685    56.23824    27.45772
   437  O   6.0   -0.09    1.05    34.75206    56.33273    25.22784
   438  O   6.0   -0.09    1.05    37.62444    56.97524    28.28920
   439  H   1.0    0.09    1.00    34.54419    53.00681    29.78208
   440  H   1.0    0.06    0.99    33.58043    55.91699    31.18048
   441  H   1.0    0.08    1.00    31.93637    54.61308    28.51596
   442  C   4.0   -0.25    4.03    22.94127    40.32675    21.41060
   443  C   4.0    0.22    3.02    23.03576    40.38344    24.32077
   444  O   6.0   -0.10    1.09    22.29877    38.41813    25.41681
   445  O   6.0   -0.14    1.25    23.67827    42.17868    25.54909
   446  H   1.0    0.07    1.00    21.71295    38.68269    20.91927
   447  H   1.0    0.08    1.00    22.10979    42.04640    20.65470
   448  H   1.0    0.09    1.00    24.81210    40.15668    20.65470
   449  C   4.0   -0.27    4.04    37.32209    30.93481    28.10022
   450  C   4.0    0.21    3.02    37.18981    33.54264    29.00729
   451  O   6.0   -0.09    1.07    36.96304    35.31898    27.45772
   452  O   6.0   -0.12    1.19    37.17091    33.95838    31.27496
   453  H   1.0    0.06    0.98    37.79452    30.72694    25.96483
   454  H   1.0    0.11    1.01    38.68269    29.98995    29.15847
   455  H   1.0    0.10    1.01    35.54575    30.08444    28.44038
   456  C   4.0   -0.27    4.02    25.70027    32.99462     5.66918
   457  C   4.0    0.18    3.01    28.36479    31.86078     6.14161
   458  O   6.0   -0.09    1.05    29.74429    32.73005     7.86126
   459  O   6.0   -0.10    1.06    29.06399    30.12223     4.72431
   460  H   1.0    0.07    1.00    25.87035    34.44970     4.15740
   461  H   1.0    0.11    1.00    24.88769    33.92058     7.18096
   462  H   1.0    0.08    1.00    24.64203    31.46394     4.81880
   463  C   4.0   -0.23    4.03     7.44552     2.94797    20.40904
   464  C   4.0    0.20    3.01     5.74477     3.34481    18.16027
   465  O   6.0   -0.10    1.06     5.46131     5.53690    17.44217
   466  O   6.0   -0.09    1.05     4.49755     1.54958    17.27210
   467  H   1.0    0.07    1.00     7.40773     4.44086    21.86413
   468  H   1.0    0.08    1.00     9.35414     2.68341    19.65315
   469  H   1.0    0.07    0.99     7.14316     1.11494    21.39170
   470  C   4.0   -0.27    4.06     9.03289    30.10333    16.51620
   471  C   4.0    0.19    3.02    11.01710    30.51907    18.50042
   472  O   6.0   -0.09    1.07    10.12893    30.14113    20.67360
   473  O   6.0   -0.10    1.05    13.20918    31.06709    17.87681
   474  H   1.0    0.08    1.00     7.29434    29.23406    17.15871
   475  H   1.0    0.09    1.01     8.63605    31.91747    15.70362
   476  H   1.0    0.09    1.01     9.99665    29.29075    14.92883
   477  C   4.0   -0.24    4.03    32.12534    54.55639     5.36682
   478  C   4.0    0.19    3.02    29.70649    53.70601     4.10071
   479  O   6.0   -0.11    1.07    29.53642    51.49503     3.47710
   480  O   6.0   -0.08    1.05    28.10022    55.31228     3.34481
   481  H   1.0    0.07    0.99    33.88279    53.47924     4.87549
   482  H   1.0    0.10    1.01    32.23872    56.46501     4.79990
   483  H   1.0    0.07    1.00    31.65291    54.72646     7.40773
   484  C   4.0   -0.27    4.02    13.92728    53.32807    53.85719
   485  C   4.0    0.18    3.01    13.43595    52.68556    51.02260
   486  O   6.0   -0.10    1.11    11.28166    53.19579    50.21002
   487  O   6.0   -0.09    1.05    15.19340    51.92967    49.60531
   488  H   1.0    0.08    1.00    14.75876    55.21779    54.02726
   489  H   1.0    0.10    1.00    15.06112    51.98636    54.78316
   490  H   1.0    0.09    1.00    12.13204    53.21468    54.78316
   491  C   4.0   -0.24    4.03     8.33369    41.38500    46.73292
   492  C   4.0    0.17    3.01    11.01710    42.10309    47.48881
   493  O   6.0   -0.09    1.05    11.26277    43.95503    48.96280
   494  O   6.0   -0.08    1.05    12.81234    40.79918    46.56285
   495  H   1.0    0.07    0.99     8.01244    40.30785    44.95658
   496  H   1.0    0.08    1.00     7.57780    40.19447    48.24470
   497  H   1.0    0.09    1.00     7.36993    43.16134    46.44946
   498  C   4.0   -0.26    4.04    31.48283    42.99127    15.08001
   499  C   4.0    0.21    3.02    30.78364    41.08264    17.13981
   500  O   6.0   -0.11    1.09    30.70805    38.83387    16.68628
   501  O   6.0   -0.11    1.19    31.02930    41.97081    19.31300
   502  H   1.0    0.08    1.00    33.39146    43.72826    15.38237
   503  H   1.0    0.07    1.00    31.04820    42.23537    13.17139
   504  H   1.0    0.10    1.01    30.16003    44.44635    15.23119
   505  C   4.0   -0.27    4.05    27.32544     2.58892    51.32496
   506  C   4.0    0.20    3.02    29.17737     4.44086    50.43679
   507  O   6.0   -0.09    1.06    30.33010     5.82036    51.94857
   508  O   6.0   -0.10    1.07    29.42303     4.64873    48.13132
   509  H   1.0    0.10    1.01    25.51130     3.13695    50.72024
   510  H   1.0    0.07    1.00    27.11757     2.47554    53.40366
   511  H   1.0    0.09    1.01    27.89236     0.85038    50.45568
   512  C   4.0   -0.23    4.02    23.37591    19.02954    15.72252
   513  C   4.0    0.20    3.01    23.43260    19.50197    12.81234
   514  O   6.0   -0.12    1.22    21.80744    18.38703    11.58402
   515  O   6.0   -0.10    1.05    24.94438    21.08934    11.98086
   516  H   1.0    0.08    1.00    21.50508    19.18072    16.59179
   517  H   1.0    0.08    1.00    24.71762    20.31455    16.62959
   518  H   1.0    0.07    0.99    23.96173    17.04533    16.13826
   519  C   4.0   -0.30    4.04    10.45018    40.17557    32.37101
   520  C   4.0    0.18    3.02    12.20763    37.98349    33.03241
   521  O   6.0   -0.09    1.05    13.83279    38.13467    34.75206
   522  O   6.0   -0.09    1.06    12.05645    36.03707    31.67181
   523  H   1.0    0.10    1.00     8.52266    39.68424    32.29542
   524  H   1.0    0.11    1.01    11.05490    41.08264    30.74584
   525  H   1.0    0.09    1.01    10.67695    41.46059    33.90168
   526  C   4.0   -0.25    4.03    20.84368    33.41035    20.04999
   527  C   4.0    0.22    3.02    23.09245    31.95527    19.02954
   528  O   6.0   -0.11    1.07    23.90503    32.44659    16.93194
   529  O   6.0   -0.12    1.13    23.79165    30.04664    20.12558
   530  H   1.0    0.07    0.99    20.42794    35.18670    18.93505
   531  H   1.0    0.08    1.00    21.20273    34.16625    21.92082
   532  H   1.0    0.10    1.01    19.33190    32.16314    20.37125
   533  C   4.0   -0.27    4.04    44.54084    16.85636    20.88147
   534  C   4.0    0.23    3.02    47.20535    16.91305    19.72874
   535  O   6.0   -0.14    1.44    47.41322    17.55555    17.51776
   536  O   6.0   -0.11    1.07    49.00059    16.44062    21.08934
   537  H   1.0    0.09    1.00    44.08731    14.87214    20.93816
   538  H   1.0    0.11    1.00    44.44635    17.66894    22.65781
   539  H   1.0    0.07    1.00    43.31252    17.91460    19.53977
   540  C   4.0   -0.26    4.05    18.72718    16.30833    38.56931
   541  C   4.0    0.20    3.02    19.44528    17.66894    40.93146
   542  O   6.0   -0.09    1.06    18.16027    19.57756    41.47948
   543  O   6.0   -0.12    1.22    21.39170    16.95084    41.97081
   544  H   1.0    0.07    1.00    20.20117    14.83435    38.22916
   545  H   1.0    0.09    1.00    16.81856    15.59024    38.58820
   546  H   1.0    0.10    1.01    18.68939    17.49886    36.98194
   547  C   4.0   -0.29    4.04    34.86544    58.71379    38.21026
   548  C   4.0    0.18    3.02    32.12534    57.88231    38.64490
   549  O   6.0   -0.08    1.04    30.36790    59.52637    38.68269
   550  O   6.0   -0.11    1.18    31.80409    55.61463    39.15512
   551  H   1.0    0.10    1.00    35.88590    58.80827    39.91101
   552  H   1.0    0.10    1.00    35.75361    57.75003    36.69848
   553  H   1.0    0.10    1.01    34.52529    60.53737    37.45437
   554  C   4.0   -0.24    4.06    44.27628    48.28250    39.87322
   555  C   4.0    0.18    3.02    43.76605    45.80696    41.13933
   556  O   6.0   -0.08    1.05    44.97548    43.89833    40.34565
   557  O   6.0   -0.10    1.07    42.06530    46.03372    42.72670
   558  H   1.0    0.09    1.00    43.04796    49.75648    40.51572
   559  H   1.0    0.07    1.00    43.84164    47.98014    37.83231
   560  H   1.0    0.08    1.00    46.26049    48.73603    40.32675
   561  C   4.0   -0.28    4.04    18.02799    30.85922     4.76211
   562  C   4.0    0.18    3.02    18.72718    28.81832     6.65184
   563  O   6.0   -0.10    1.29    20.23896    29.49862     8.42818
   564  O   6.0   -0.10    1.05    17.76342    26.70183     6.42507
   565  H   1.0    0.10    1.00    19.44528    32.18203     4.34637
   566  H   1.0    0.10    1.00    17.42327    29.97105     3.08025
   567  H   1.0    0.08    1.00    16.53510    32.10644     5.48021
   568  C   4.0   -0.21    4.00    19.10513    26.98529    26.26719
   569  C   4.0    0.19    3.01    16.95084    26.55065    28.25140
   570  O   6.0   -0.09    1.06    14.75876    27.24985    27.68449
   571  O   6.0   -0.10    1.06    17.44217    25.92704    30.42459
   572  H   1.0    0.07    1.00    20.86257    26.96639    27.40103
   573  H   1.0    0.07    1.00    19.52087    25.43571    24.92549
   574  H   1.0    0.06    0.99    18.82167    28.85612    25.24674
   575  C   4.0   -0.24    4.03    42.48104     6.23610    53.89498
   576  C   4.0    0.18    3.02    44.48415     8.01244    53.15799
   577  O   6.0   -0.08    1.06    45.93924     7.42662    51.34385
   578  O   6.0   -0.11    1.35    44.59753    10.22342    54.06506
   579  H   1.0    0.08    1.00    40.62911     6.50066    53.06350
   580  H   1.0    0.07    1.00    42.31096     6.21720    55.99258
   581  H   1.0    0.08    1.00    43.04796     4.36527    53.29027
   582  C   4.0   -0.25    4.01    15.62803    29.64980    52.34541
   583  C   4.0    0.18    2.99    17.32879    27.15536    52.72335
   584  O   6.0   -0.09    1.04    16.19495    25.11446    52.30761
   585  O   6.0   -0.09    1.04    19.55866    27.45772    53.47924
   586  H   1.0    0.09    1.00    16.51620    30.68915    50.83363
   587  H   1.0    0.09    1.00    13.75720    29.10178    51.77849
   588  H   1.0    0.08    1.00    15.59024    31.04820    53.87609
   589  C   4.0   -0.25    4.03    30.36790    16.89415     4.21409
   590  C   4.0    0.21    3.02    32.04975    18.61380     5.82036
   591  O   6.0   -0.10    1.22    31.67181    20.95706     6.12271
   592  O   6.0   -0.13    1.19    33.59933    17.51776     7.10537
   593  H   1.0    0.08    1.00    30.65135    14.96663     4.85660
   594  H   1.0    0.07    1.00    30.70805    16.87525     2.15429
   595  H   1.0    0.09    1.00    28.44038    17.47997     4.40306
   596  C   4.0   -0.26    4.05    20.35235    11.75410    15.66583
   597  C   4.0    0.19    3.03    19.25631    10.35570    13.49264
   598  O   6.0   -0.10    1.08    20.86257     9.75099    11.88638
   599  O   6.0   -0.10    1.13    16.95084     9.88327    13.09580
   600  H   1.0    0.09    1.01    19.61536    13.58713    15.30678
   601  H   1.0    0.07    1.00    19.36969    11.01710    17.38548
   602  H   1.0    0.09    1.00    22.33656    11.52733    16.08157
   603  C   4.0   -0.21    4.02     1.39840    27.41992    15.91149
   604  C   4.0    0.19    3.01    -1.30202    28.10022    16.49731
   605  O   6.0   -0.10    1.06    -1.66107    30.27341    17.27210
   606  O   6.0   -0.09    1.10    -3.00277    26.43727    16.21385
   607  H   1.0    0.06    0.99     1.41729    25.56799    14.83435
   608  H   1.0    0.07    1.00     2.43775    28.74273    14.68317
   609  H   1.0    0.07    0.99     2.34326    26.87190    17.74453
   610  C   4.0   -0.23    4.05    44.82430    37.83231    29.78208
   611  C   4.0    0.19    3.02    44.76761    40.15668    28.19471
   612  O   6.0   -0.11    1.07    43.82274    41.97081    29.27185
   613  O   6.0   -0.09    1.17    45.75027    40.08109    25.98373
   614  H   1.0    0.08    1.00    45.82585    36.32053    28.81832
   615  H   1.0    0.07    1.00    42.82119    37.20870    29.78208
   616  H   1.0    0.07    1.00    45.44791    38.28585    31.74740
   617  C   4.0   -0.21    4.01    19.14292    18.21696    51.64621
   618  C   4.0    0.19    3.00    17.80122    15.62803    52.19423
   619  O   6.0   -0.10    1.05    17.27210    15.17450    54.42411
   620  O   6.0   -0.10    1.05    17.85791    14.07846    50.43679
   621  H   1.0    0.07    0.99    19.80433    18.19806    49.62420
   622  H   1.0    0.06    0.99    20.88147    18.55711    52.85563
   623  H   1.0    0.08    1.00    17.87681    19.82323    51.83518
   624  C   4.0   -0.24    4.05    16.51620    41.61177    16.55400
   625  C   4.0    0.22    3.02    18.23586    43.04796    14.75876
   626  O   6.0   -0.11    1.06    18.14137    42.67001    12.50999
   627  O   6.0   -0.12    1.18    19.69094    44.50305    15.83590
   628  H   1.0    0.08    1.00    16.28944    42.74560    18.27365
   629  H   1.0    0.08    1.00    14.58868    41.42279    15.89260
   630  H   1.0    0.07    1.00    17.21540    39.74094    17.15871
   631  C   4.0   -0.30    4.05    44.01172    59.96100    43.27472
   632  C   4.0    0.22    3.02    41.25272    59.60196    43.86054
   633  O   6.0   -0.11    1.06    39.70314    60.34840    42.32986
   634  O   6.0   -0.13    1.24    40.70470    58.67599    45.90144
   635  H   1.0    0.10    1.00    44.42746    59.63975    41.34720
   636  H   1.0    0.11    1.01    45.01327    58.67599    44.37077
   637  H   1.0    0.09    1.00    44.50305    61.76569    44.01172
   638  C   4.0   -0.25    4.03    29.64980     7.67229     2.02201
   639  C   4.0    0.20    3.02    29.83877     7.72898     4.85660
   640  O   6.0   -0.10    1.15    31.63401     6.63294     5.91484
   641  O   6.0   -0.10    1.06    28.27030     8.93840     6.10381
   642  H   1.0    0.07    0.99    28.83722     9.33525     1.02045
   643  H   1.0    0.10    1.01    31.55842     7.67229     1.43619
   644  H   1.0    0.08    1.00    28.98840     5.80146     1.41729
   645  C   4.0   -0.24    4.03    15.96818    56.23824     8.59825
   646  C   4.0    0.19    3.01    17.49886    55.74692     6.25499
   647  O   6.0   -0.09    1.10    16.34613    54.82095     4.38416
   648  O   6.0   -0.10    1.06    19.80433    56.16266     6.34948
   649  H   1.0    0.07    1.00    16.98864    57.65554     9.75099
   650  H   1.0    0.08    1.00    15.76031    54.48080     9.61871
   651  H   1.0    0.07    0.99    14.07846    57.14531     8.65494
   652  C   4.0   -0.23    4.03    42.89678    12.98242    26.11601
   653  C   4.0    0.19    3.01    42.89678    10.58247    27.60890
   654  O   6.0   -0.09    1.06    44.74871    10.22342    29.02619
   655  O   6.0   -0.10    1.15    41.06374     9.10848    27.43882
   656  H   1.0    0.08    1.00    42.84009    12.68006    24.07511
   657  H   1.0    0.08    1.00    44.57864    14.15405    26.47506
   658  H   1.0    0.07    0.99    41.19603    14.13515    26.62624
   659  C   4.0   -0.28    4.02    23.64047     6.17940    40.34565
   660  C   4.0    0.17    3.01    21.44839     7.63449    38.96615
   661  O   6.0   -0.10    1.05    21.24052     9.95886    39.19292
   662  O   6.0   -0.09    1.11    20.06889     6.31168    37.47327
   663  H   1.0    0.09    1.00    25.17115     7.48331    40.15668
   664  H   1.0    0.10    1.00    23.16804     5.51800    42.15979
   665  H   1.0    0.09    1.01    23.98062     4.68652    39.04174
   666  C   4.0   -0.24    4.02     8.18251    48.11242    35.11111
   667  C   4.0    0.18    3.01    10.09114    50.03994    36.28274
   668  O   6.0   -0.09    1.05    12.39660    49.47303    36.05597
   669  O   6.0   -0.09    1.04     9.18407    51.96746    37.32209
   670  H   1.0    0.08    1.00     8.95730    46.22270    34.86544
   671  H   1.0    0.07    0.99     6.40617    47.77227    36.20715
   672  H   1.0    0.09    1.00     7.48331    49.01949    33.44815
   673  C   4.0   -0.27    4.06    42.82119    19.82323    54.00837
   674  C   4.0    0.22    3.02    40.62911    20.01220    52.30761
   675  O   6.0   -0.10    1.07    40.72359    21.69405    50.72024
   676  O   6.0   -0.11    1.07    38.94725    18.46262    52.53438
   677  H   1.0    0.09    1.00    42.91568    21.48618    55.16110
   678  H   1.0    0.10    1.00    42.67001    18.34924    55.31228
   679  H   1.0    0.07    1.00    44.63533    19.78543    52.93122
   680  C   4.0   -0.25    4.03    33.14579    21.27831    16.89415
   681  C   4.0    0.17    3.02    34.39301    18.93505    18.08468
   682  O   6.0   -0.10    1.15    32.86233    17.40438    19.08623
   683  O   6.0   -0.09    1.07    36.75517    18.46262    17.85791
   684  H   1.0    0.09    1.00    33.10800    21.18383    14.85325
   685  H   1.0    0.09    1.00    34.14735    22.97907    17.29099
   686  H   1.0    0.07    1.00    31.12379    21.39170    17.44217
   687  C   4.0   -0.21    4.01    37.13311    45.03217    48.41478
   688  C   4.0    0.18    3.01    38.36144    46.73292    50.45568
   689  O   6.0   -0.10    1.05    38.19136    49.03839    50.24781
   690  O   6.0   -0.08    1.05    39.09843    45.56129    52.43990
   691  H   1.0    0.08    1.00    35.30008    46.01483    48.24470
   692  H   1.0    0.06    0.99    36.75517    42.95347    48.84942
   693  H   1.0    0.07    0.99    37.94570    45.22114    46.48726
   694  C   4.0   -0.25    4.03    31.01040    42.44324    49.92656
   695  C   4.0    0.19    3.01    28.76163    41.23382    51.23047
   696  O   6.0   -0.08    1.05    29.25296    40.04329    53.25248
   697  O   6.0   -0.11    1.09    26.62624    41.66846    50.45568
   698  H   1.0    0.09    1.00    30.67025    44.42746    49.81318
   699  H   1.0    0.08    1.00    32.69226    42.32986    51.11709
   700  H   1.0    0.07    1.00    31.38835    41.66846    48.01794
   701  C   4.0   -0.19    4.08     9.92106    20.78699    33.84499
   702  N   5.0   -0.25    3.99    12.49109    21.24052    35.13001
   703  H   1.0    0.09    1.00     9.84547    18.91616    33.07020
   704  H   1.0    0.06    0.98     8.46597    21.24052    35.43236
   705  H   1.0    0.10    1.00     9.63760    21.71295    32.10644
   706  C   4.0   -0.20    4.12    12.92573    19.29410    37.18981
   707  H   1.0    0.08    1.00    11.28166    19.52087    38.45592
   708  H   1.0    0.09    1.00    12.77455    17.29099    36.84966
   709  H   1.0    0.10    1.00    14.72097    19.08623    38.05908
   710  C   4.0   -0.14    4.13    14.49420    20.80588    33.25918
   711  H   1.0    0.07    0.99    14.60758    18.82167    32.48439
   712  H   1.0    0.07    0.99    14.41861    22.18538    31.63401
   713  H   1.0    0.08    1.00    16.23275    21.56177    34.12845
   714  C   4.0   -0.13    4.10    12.62337    24.03731    36.15046
   715  H   1.0    0.09    1.02    12.01866    25.41681    34.77096
   716  H   1.0    0.10    1.01    11.16828    24.09401    37.52996
   717  C   4.0   -0.14    4.02    14.89104    25.60579    36.94414
   718  H   1.0    0.06    0.99    16.21385    24.88769    38.49372
   719  H   1.0    0.13    1.01    16.02488    25.49240    35.41346
   720  O   6.0   -0.18    2.02    14.41861    28.00574    37.90790
   721  H   1.0    0.13    1.03    15.51465    28.28920    39.36299
   722  C   4.0   -0.18    4.07     8.90061    48.58485     8.67384
   723  N   5.0   -0.24    3.98    10.62026    46.58174     7.61560
   724  H   1.0    0.06    0.98     7.29434    47.84786     9.97775
   725  H   1.0    0.06    0.99     7.78567    49.35964     6.99199
   726  H   1.0    0.13    1.01     9.84547    49.98325     9.54312
   727  C   4.0   -0.14    4.06    11.96197    45.35342     9.97775
   728  H   1.0    0.06    0.98    13.34147    43.89833     9.10848
   729  H   1.0    0.06    0.99    13.17139    46.71403    11.13049
   730  H   1.0    0.07    0.99    10.79034    44.38966    11.47064
   731  C   4.0   -0.13    4.08     9.03289    44.38966     6.55735
   732  H   1.0    0.06    0.99    10.41239    42.82119     5.95264
   733  H   1.0    0.08    1.00     7.80457    43.44480     7.93685
   734  H   1.0    0.05    0.97     7.52111    44.95658     5.02667
   735  C   4.0   -0.10    4.09    12.41550    47.43212     5.49910
   736  H   1.0    0.08    1.01    13.15249    45.73137     4.59203
   737  H   1.0    0.08    1.00    11.37615    48.39588     3.96842
   738  C   4.0   -0.14    4.02    14.87214    48.86831     6.04712
   739  H   1.0    0.13    1.01    15.98708    48.09353     7.38883
   740  H   1.0    0.07    1.00    14.00287    50.58796     6.89750
   741  O   6.0   -0.13    1.98    16.40282    49.86987     4.17629
   742  H   1.0    0.08    1.01    16.30833    51.87298     4.17629
   743  C   4.0   -0.14    4.13    17.61225     0.81258    14.60758
   744  N   5.0   -0.26    4.01    17.46107     2.24877    17.04533
   745  H   1.0    0.06    0.99    18.95395    -0.85983    14.94773
   746  H   1.0    0.07    0.99    15.76031     0.09449    13.92728
   747  H   1.0    0.07    0.99    18.40593     1.73855    12.90683
   748  C   4.0   -0.18    4.09    20.18227     2.74010    17.89570
   749  H   1.0    0.07    0.99    21.20273     0.88817    18.21696
   750  H   1.0    0.10    1.00    20.16338     3.77945    19.59646
   751  H   1.0    0.08    1.00    21.10824     4.10071    16.61069
   752  C   4.0   -0.18    4.13    16.19495     4.72431    16.34613
   753  H   1.0    0.07    0.99    17.25320     5.85815    14.90994
   754  H   1.0    0.08    1.00    15.94929     5.87705    18.04688
   755  H   1.0    0.09    1.01    14.53199     3.93063    15.51465
   756  C   4.0   -0.13    4.11    15.87370     0.83148    18.95395
   757  H   1.0    0.10    1.01    13.94618     0.51023    18.57601
   758  H   1.0    0.09    1.01    16.08157     1.92752    20.65470
   759  C   4.0   -0.06    3.97    16.74297    -1.88028    20.01220
   760  H   1.0    0.05    0.97    18.70829    -2.12594    21.01375
   761  H   1.0    0.06    0.99    16.81856    -3.16529    18.29255
   762  O   6.0   -0.13    1.97    14.77766    -2.78735    21.52398
   763  H   1.0    0.07    0.96    13.71941    -4.03456    20.33345
   764  C   4.0   -0.19    4.10    26.64514    26.53175    47.43212
   765  N   5.0   -0.27    4.01    24.64203    24.75541    48.66044
   766  H   1.0    0.09    1.00    26.70183    28.42148    48.18801
   767  H   1.0    0.09    1.00    26.53175    26.77742    45.42901
   768  H   1.0    0.06    0.99    28.68604    25.88925    47.69668
   769  C   4.0   -0.19    4.16    25.03887    25.09556    51.43834
   770  H   1.0    0.06    0.98    25.05777    27.15536    52.19423
   771  H   1.0    0.10    1.01    26.92859    24.47195    51.70290
   772  H   1.0    0.11    1.00    23.62157    24.30188    52.55328
   773  C   4.0   -0.15    4.18    22.12869    25.68138    48.18801
   774  H   1.0    0.06    0.98    20.50353    24.62313    49.20846
   775  H   1.0    0.09    1.00    21.99641    27.62779    48.71713
   776  H   1.0    0.08    1.00    21.78854    25.64358    46.14711
   777  C   4.0   -0.16    4.13    24.75541    22.01531    47.81007
   778  H   1.0    0.11    1.01    26.51286    21.29721    48.30140
   779  H   1.0    0.11    1.01    23.77275    20.99486    49.15177
   780  C   4.0   -0.10    4.00    24.30188    21.27831    44.97548
   781  H   1.0    0.07    1.00    22.27987    21.63736    44.55974
   782  H   1.0    0.08    1.00    25.56799    22.39325    43.74716
   783  O   6.0   -0.13    1.99    24.83100    18.63270    44.63533
   784  H   1.0    0.09    1.13    23.37591    17.82012    43.55818
   785  C   4.0   -0.18    4.13    41.66846     0.69920    19.93661
   786  N   5.0   -0.25    3.99    39.72204    -0.50078    21.71295
   787  H   1.0    0.08    1.00    42.31096    -0.34960    18.25475
   788  H   1.0    0.07    1.00    43.18024     1.41729    21.22162
   789  H   1.0    0.10    1.01    40.62911     2.24877    19.18072
   790  C   4.0   -0.16    4.10    37.73783    -1.44564    19.86102
   791  H   1.0    0.07    0.99    36.05597    -2.39050    20.78699
   792  H   1.0    0.10    1.00    36.79296    -0.02835    18.80277
   793  H   1.0    0.06    0.98    38.68269    -2.90073    18.51931
   794  C   4.0   -0.18    4.12    40.93146    -2.71176    22.96017
   795  H   1.0    0.07    0.99    42.51883    -2.39050    24.33967
   796  H   1.0    0.08    1.00    39.36299    -3.61883    23.94283
   797  H   1.0    0.10    1.00    41.55507    -4.18574    21.78854
   798  C   4.0   -0.11    4.06    38.81497     1.36060    23.81055
   799  H   1.0    0.06    0.99    37.37878     2.83459    23.14914
   800  H   1.0    0.10    1.01    37.49216     0.79368    25.20894
   801  C   4.0   -0.10    3.97    40.74249     2.92908    25.49240
   802  H   1.0    0.08    1.00    42.17868     3.77945    24.28298
   803  H   1.0    0.06    0.98    41.83853     1.60627    26.87190
   804  O   6.0   -0.13    1.99    39.51417     4.64873    27.32544
   805  H   1.0    0.10    1.07    40.06219     6.50066    27.21205
   806  C   4.0   -0.20    4.12    10.82813    36.26384     1.36060
   807  N   5.0   -0.23    3.97    10.58247    35.43236    -1.42107
   808  H   1.0    0.10    1.00     9.59981    35.79141     2.87238
   809  H   1.0    0.07    0.99    10.90372    38.39923     1.36060
   810  H   1.0    0.10    1.00    12.62337    35.71582     2.07870
   811  C   4.0   -0.18    4.10    10.12893    32.57888    -1.17541
   812  H   1.0    0.10    1.00     9.52422    32.01196    -2.98955
   813  H   1.0    0.07    0.99     8.37149    32.14424    -0.07937
   814  H   1.0    0.07    0.99    11.75410    31.42614    -0.49511
   815  C   4.0   -0.19    4.11     8.12582    36.58509    -2.32814
   816  H   1.0    0.07    0.99     7.80457    36.16935    -4.36905
   817  H   1.0    0.10    1.00     6.31168    36.03707    -1.68564
   818  H   1.0    0.08    1.00     8.44707    38.62600    -2.38483
   819  C   4.0   -0.09    4.03    12.96352    36.28274    -3.08403
   820  H   1.0    0.07    1.00    13.05801    38.38033    -2.81947
   821  H   1.0    0.06    0.99    14.72097    35.37567    -2.23366
   822  C   4.0   -0.14    4.02    13.24698    36.15046    -5.95642
   823  H   1.0    0.09    1.00    11.62181    37.05753    -6.80679
   824  H   1.0    0.11    1.01    13.37926    34.29853    -6.56113
   825  O   6.0   -0.16    2.00    15.26899    37.34098    -7.14694
   826  H   1.0    0.10    1.00    14.55089    38.62600    -8.35637
   827  C   4.0   -0.18    4.12     3.85504    51.60842    41.19603
   828  N   5.0   -0.27    4.01     1.62516    49.85097    41.83853
   829  H   1.0    0.09    1.00     4.83770    52.23203    42.84009
   830  H   1.0    0.09    1.00     5.49910    50.73914    40.34565
   831  H   1.0    0.06    0.98     3.13695    53.36586    40.11888
   832  C   4.0   -0.13    4.10    -0.14929    51.24937    43.33142
   833  H   1.0    0.11    1.01     0.64251    52.09974    44.89989
   834  H   1.0    0.06    0.99    -1.22643    52.78005    42.27317
   835  H   1.0    0.04    0.94    -2.00122    50.07774    44.04951
   836  C   4.0   -0.15    4.07     0.60471    48.86831    39.32520
   837  H   1.0    0.05    0.98     2.02201    47.50771    38.30474
   838  H   1.0    0.10    1.00    -0.82959    47.48881    39.43858
   839  H   1.0    0.06    0.99     0.30236    50.53127    37.98349
   840  C   4.0   -0.15    4.18     2.64562    47.73448    43.46370
   841  H   1.0    0.09    1.01     4.02512    46.67623    42.38655
   842  H   1.0    0.12    1.01     3.49599    48.45257    45.05107
   843  C   4.0   -0.12    4.02     1.02045    45.59909    44.35187
   844  H   1.0    0.11    1.01    -0.50834    46.24159    45.39122
   845  H   1.0    0.06    0.99    -0.05480    44.29518    43.01016
   846  O   6.0   -0.15    2.02     2.51334    43.99282    45.82585
   847  H   1.0    0.10    0.99     1.73855    43.40701    47.48881
   848  C   4.0   -0.19    4.12    22.58223    23.56488    33.29697
   849  N   5.0   -0.25    4.00    24.33967    23.73496    35.56464
   850  H   1.0    0.11    1.00    20.73029    24.20739    33.52374
   851  H   1.0    0.07    0.99    22.39325    21.56177    32.54108
   852  H   1.0    0.08    1.00    23.14914    24.64203    31.63401
   853  C   4.0   -0.16    4.09    23.22473    21.88303    37.43547
   854  H   1.0    0.05    0.97    21.14603    22.05310    38.21026
   855  H   1.0    0.11    1.01    24.11290    21.95862    39.17402
   856  H   1.0    0.06    0.99    23.39481    19.84212    36.75517
   857  C   4.0   -0.16    4.08    26.98529    22.99796    34.73316
   858  H   1.0    0.10    1.00    27.40103    21.35390    33.67492
   859  H   1.0    0.06    0.98    28.38368    23.13025    36.41502
   860  H   1.0    0.07    1.00    27.66559    24.62313    33.58043
   861  C   4.0   -0.07    4.08    24.45305    26.41837    36.69848
   862  H   1.0    0.08    1.01    25.73807    26.39947    38.32364
   863  H   1.0    0.05    0.97    25.34122    27.93015    35.28118
   864  C   4.0   -0.13    4.03    22.16649    27.79787    37.79452
   865  H   1.0    0.08    1.00    20.76809    28.08133    36.32053
   866  H   1.0    0.10    1.01    21.18383    26.79631    39.19292
   867  O   6.0   -0.16    2.02    22.92238    30.23562    38.47482
   868  H   1.0    0.10    1.03    22.16649    30.63246    40.19447
   869  C   4.0   -0.21    4.12    25.30343    34.33632    53.97057
   870  N   5.0   -0.26    4.00    22.69561    35.39457    54.32962
   871  H   1.0    0.07    1.00    26.70183    35.65913    53.13909
   872  H   1.0    0.10    1.00    26.04042    33.50484    55.61463
   873  H   1.0    0.10    1.01    25.03887    32.69226    52.87453
   874  C   4.0   -0.18    4.06    21.90192    36.67958    51.77849
   875  H   1.0    0.06    0.98    23.28142    38.09688    50.89032
   876  H   1.0    0.12    1.00    20.22007    37.60555    51.91077
   877  H   1.0    0.05    0.97    21.39170    35.01662    50.36120
   878  C   4.0   -0.20    4.14    20.95706    33.31587    54.89654
   879  H   1.0    0.07    1.00    18.93505    33.78830    55.18000
   880  H   1.0    0.08    1.00    21.59957    32.50329    56.67666
   881  H   1.0    0.12    1.00    20.48463    31.76629    53.85719
   882  C   4.0   -0.15    4.13    22.50664    37.41657    56.41210
   883  H   1.0    0.09    1.01    23.03576    36.67958    58.24513
   884  H   1.0    0.12    1.01    20.61691    37.85121    56.50659
   885  C   4.0   -0.13    4.04    23.98062    39.96770    56.60107
   886  H   1.0    0.09    1.01    23.84834    40.93146    54.83985
   887  H   1.0    0.11    1.01    25.92704    39.79763    56.61997
   888  O   6.0   -0.20    2.03    23.13025    41.29051    58.50969
   889  H   1.0    0.12    1.02    24.64203    41.72515    59.49235
   890  C   4.0   -0.18    4.08    42.10309    52.30761    29.08288
   891  N   5.0   -0.25    3.99    43.95503    50.19112    28.15692
   892  H   1.0    0.09    1.00    42.63222    54.14065    29.72539
   893  H   1.0    0.08    1.00    41.00705    51.64621    30.72694
   894  H   1.0    0.06    0.98    40.51572    52.72335    27.66559
   895  C   4.0   -0.13    4.09    42.55663    47.94235    27.21205
   896  H   1.0    0.06    0.98    41.04485    48.47147    25.70027
   897  H   1.0    0.08    1.00    43.69046    46.27939    26.81521
   898  H   1.0    0.06    0.99    41.32831    47.14866    28.79942
   899  C   4.0   -0.17    4.11    45.50460    51.28716    26.05932
   900  H   1.0    0.08    1.00    44.46525    51.75959    24.32077
   901  H   1.0    0.09    1.00    46.35498    53.12020    26.38057
   902  H   1.0    0.07    1.00    47.20535    50.15333    25.58689
   903  C   4.0   -0.13    4.16    45.54240    49.39744    30.44349
   904  H   1.0    0.09    1.01    44.29518    48.56596    31.80409
   905  H   1.0    0.09    1.01    46.71403    47.90455    29.70649
   906  C   4.0   -0.10    4.05    47.14866    51.11709    32.06865
   907  H   1.0    0.09    1.01    46.03372    52.72335    32.63557
   908  H   1.0    0.08    1.01    48.52816    51.57062    30.59466
   909  O   6.0   -0.16    2.02    47.84786    49.81318    34.14735
   910  H   1.0    0.10    1.11    47.52661    51.21157    35.45126
   911  C   4.0   -0.12    4.10    25.87035    57.08862    10.33680
   912  N   5.0   -0.24    3.99    25.94594    59.75313     9.46753
   913  H   1.0    0.06    0.99    23.88614    56.31383    10.73364
   914  H   1.0    0.07    0.99    26.98529    55.72802     9.18407
   915  H   1.0    0.06    0.98    26.72072    56.91855    12.35881
   916  C   4.0   -0.18    4.10    28.76163    60.46178     9.22186
   917  H   1.0    0.09    1.00    29.55531    59.28070     7.74788
   918  H   1.0    0.06    0.99    28.79942    62.46489     8.42818
   919  H   1.0    0.09    1.00    29.83877    60.38619    10.94151
   920  C   4.0   -0.19    4.10    24.77431    59.71534     6.80301
   921  H   1.0    0.07    0.99    25.20894    58.14687     5.46131
   922  H   1.0    0.08    1.00    22.80899    59.18622     7.10537
   923  H   1.0    0.10    1.00    24.94438    61.27436     5.55579
   924  C   4.0   -0.14    4.09    24.67982    61.59562    11.37615
   925  H   1.0    0.09    1.01    22.75230    60.99091    11.47064
   926  H   1.0    0.10    1.01    25.37902    61.29326    13.20918
   927  C   4.0   -0.10    4.01    24.45305    64.46800    10.97931
   928  H   1.0    0.08    1.00    23.65937    65.52625     9.37304
   929  H   1.0    0.08    1.00    26.47506    64.94043    10.84703
   930  O   6.0   -0.15    1.99    23.37591    65.84750    12.90683
   931  H   1.0    0.09    0.98    22.22318    67.24590    12.16984
   932  C   4.0   -0.18    4.11    45.71247    47.90455    19.97440
   933  N   5.0   -0.24    3.99    48.33919    47.12977    19.08623
   934  H   1.0    0.10    1.00    45.39122    48.09353    21.92082
   935  H   1.0    0.08    1.00    44.18179    46.61954    19.42638
   936  H   1.0    0.06    0.98    45.12666    49.85097    19.10513
   937  C   4.0   -0.26    4.05    48.56596    46.97859    16.11936
   938  H   1.0    0.14    1.00    50.30450    46.50616    15.57134
   939  H   1.0    0.08    1.00    47.14866    45.58019    15.53355
   940  H   1.0    0.10    1.00    48.05573    48.79272    15.45796
   941  C   4.0   -0.12    4.09    50.02105    49.07618    20.31455
   942  H   1.0    0.07    0.99    49.83207    49.00059    22.43105
   943  H   1.0    0.06    0.98    52.13565    48.88721    19.76653
   944  H   1.0    0.06    0.98    49.73759    51.15488    19.76653
   945  C   4.0   -0.08    4.10    48.96280    44.54084    20.23896
   946  H   1.0    0.08    1.01    51.02071    44.25738    20.16338
   947  H   1.0    0.06    0.98    47.86676    42.97237    19.12403
   948  C   4.0   -0.11    4.04    48.41478    43.95503    22.97907
   949  H   1.0    0.09    1.01    46.43057    43.87944    23.35701
   950  H   1.0    0.08    1.00    49.28405    45.27783    24.30188
   951  O   6.0   -0.15    2.01    49.51082    41.74405    23.77275
   952  H   1.0    0.10    1.12    48.07463    40.95036    24.81210
   953  C   4.0   -0.19    4.08    50.53127    12.39660     0.37795
   954  N   5.0   -0.25    3.99    50.41789    14.73986     1.96531
   955  H   1.0    0.06    0.99    51.98447    12.88793    -1.15651
   956  H   1.0    0.08    1.00    51.32307    10.73364     1.30391
   957  H   1.0    0.12    1.00    48.81162    11.90527    -0.36283
   958  C   4.0   -0.17    4.11    52.89154    15.74142     2.98577
   959  H   1.0    0.09    1.00    54.04427    14.47530     4.08181
   960  H   1.0    0.08    1.00    52.58918    17.40438     4.21409
   961  H   1.0    0.07    0.99    54.23325    16.57290     1.56847
   962  C   4.0   -0.24    4.12    49.22736    16.91305     0.56692
   963  H   1.0    0.07    0.99    49.32185    18.67049     1.73855
   964  H   1.0    0.11    1.00    47.41322    16.57290    -0.07937
   965  H   1.0    0.12    1.01    50.24781    17.02643    -1.06203
   966  C   4.0   -0.09    4.10    48.81162    14.11625     4.44086
   967  H   1.0    0.06    0.99    49.75648    12.54778     5.61249
   968  H   1.0    0.08    1.00    49.00059    15.89260     5.53690
   969  C   4.0   -0.14    4.02    46.22270    13.05801     4.13850
   970  H   1.0    0.08    1.01    46.52505    11.41394     2.94797
   971  H   1.0    0.10    1.00    44.91879    14.13515     3.09915
   972  O   6.0   -0.13    1.99    45.31563    12.15094     6.51955
   973  H   1.0    0.09    1.07    44.69202    10.26121     6.40617
   974  C   4.0   -0.19    4.07     0.79368    40.34565    29.55531
   975  N   5.0   -0.23    3.98     1.24722    42.72670    31.25607
   976  H   1.0    0.09    1.00    -1.09415    39.96770    28.89391
   977  H   1.0    0.05    0.96     1.79524    38.38033    30.00885
   978  H   1.0    0.11    1.01     1.83303    40.81808    27.96794
   979  C   4.0   -0.16    4.10    -0.41385    41.98971    33.56153
   980  H   1.0    0.08    1.00    -0.30047    43.59598    34.86544
   981  H   1.0    0.07    0.99     0.34015    40.27006    34.52529
   982  H   1.0    0.06    0.99    -2.54924    41.81964    33.33477
   983  C   4.0   -0.15    4.06     4.00622    42.74560    32.21983
   984  H   1.0    0.08    1.00     4.34637    44.12510    33.75051
   985  H   1.0    0.07    0.99     5.17785    43.04796    30.46238
   986  H   1.0    0.07    0.99     4.61093    40.85588    33.01351
   987  C   4.0   -0.19    4.09     0.35905    45.16445    29.97105
   988  H   1.0    0.08    1.00    -1.56658    45.03217    29.19627
   989  H   1.0    0.17    1.01     0.03779    46.39277    31.27496
   990  C   4.0   -0.08    4.01     1.98421    46.29829    27.81677
   991  H   1.0    0.07    1.00     3.83614    46.86520    28.68604
   992  H   1.0    0.08    1.00     2.36216    44.91879    26.32388
   993  O   6.0   -0.14    2.01     0.81258    48.33919    26.81521
   994  H   1.0    0.09    1.37     1.56847    50.02105    27.55220
   995  C   4.0   -0.12    4.03    23.05466     8.14472     2.70231
   996  N   5.0   -0.25    3.99    21.71295    10.54467     3.59048
   997  H   1.0    0.05    0.96    22.22318     6.17940     3.43930
   998  H   1.0    0.06    0.99    24.98218     7.91795     3.68497
   999  H   1.0    0.07    0.99    23.50819     8.03134     0.64251
  1000  C   4.0   -0.13    4.08    19.18072    11.16828     2.30547
  1001  H   1.0    0.06    0.99    18.06578    12.81234     3.15584
  1002  H   1.0    0.06    0.98    19.46418    11.26277     0.13228
  1003  H   1.0    0.08    1.00    18.00909     9.44863     2.55113
  1004  C   4.0   -0.19    4.13    21.20273    10.22342     6.33058
  1005  H   1.0    0.10    1.00    19.99330    11.67851     6.99199
  1006  H   1.0    0.07    0.99    20.01220     8.48487     6.67073
  1007  H   1.0    0.09    1.00    22.86568    10.14783     7.46442
  1008  C   4.0   -0.10    4.07    23.33812    12.94462     3.11805
  1009  H   1.0    0.08    1.00    25.07666    12.68006     4.19519
  1010  H   1.0    0.07    1.00    22.22318    14.53199     3.93063
  1011  C   4.0   -0.09    3.96    24.24518    13.88949     0.24566
  1012  H   1.0    0.06    0.99    22.58223    14.49420    -0.96754
  1013  H   1.0    0.08    1.00    25.39792    12.47219    -0.74077
  1014  O   6.0   -0.13    1.97    25.68138    16.11936     0.30236
  1015  H   1.0    0.07    0.96    27.51441    15.79811    -0.47621
  1016  C   4.0   -0.18    4.11    28.85612    50.05884    21.39170
  1017  N   5.0   -0.26    4.01    26.94749    47.99904    22.16649
  1018  H   1.0    0.07    0.99    30.34900    49.22736    20.12558
  1019  H   1.0    0.07    0.99    29.76318    51.15488    22.97907
  1020  H   1.0    0.10    1.01    27.91125    51.07929    19.97440
  1021  C   4.0   -0.18    4.14    28.42148    46.16600    23.77275
  1022  H   1.0    0.06    0.99    27.23095    44.50305    24.45305
  1023  H   1.0    0.08    1.00    29.08288    46.92190    25.56799
  1024  H   1.0    0.10    1.00    29.97105    45.37232    22.77120
  1025  C   4.0   -0.19    4.10    24.64203    48.84942    23.48929
  1026  H   1.0    0.07    1.00    23.45150    47.18646    23.99952
  1027  H   1.0    0.10    1.00    24.81210    49.77538    25.22784
  1028  H   1.0    0.09    1.00    23.22473    49.73759    22.31766
  1029  C   4.0   -0.12    4.16    26.38057    46.56285    19.70984
  1030  H   1.0    0.08    1.01    28.06243    46.18490    18.50042
  1031  H   1.0    0.11    1.01    25.54909    44.91879    20.44683
  1032  C   4.0   -0.17    4.02    24.90659    47.73448    17.44217
  1033  H   1.0    0.12    1.02    23.28142    47.99904    18.48152
  1034  H   1.0    0.10    1.00    25.43571    49.39744    16.49731
  1035  O   6.0   -0.13    1.99    24.26408    45.82585    15.66583
  1036  H   1.0    0.09    1.07    22.33656    45.33453    15.77921
  1037  C   4.0   -0.17    4.09     3.74166     1.58737    43.61487
  1038  N   5.0   -0.23    3.97     0.88817     0.88817    44.18179
  1039  H   1.0    0.08    1.00     4.47865     3.49599    43.57708
  1040  H   1.0    0.07    0.99     4.44086     1.20942    41.66846
  1041  H   1.0    0.06    0.99     5.17785     1.15273    45.16445
  1042  C   4.0   -0.15    4.10    -0.28157     2.36216    41.97081
  1043  H   1.0    0.08    0.99     0.15118     4.40306    41.87633
  1044  H   1.0    0.05    0.97    -2.45475     1.94642    41.81964
  1045  H   1.0    0.07    0.99     0.07559     1.58737    40.06219
  1046  C   4.0   -0.22    4.08     0.32125    -1.89917    43.91723
  1047  H   1.0    0.09    1.00     1.88973    -2.88183    44.74871
  1048  H   1.0    0.11    1.00    -1.30202    -2.82514    44.48415
  1049  H   1.0    0.09    1.00     0.54802    -2.69286    42.06530
  1050  C   4.0   -0.11    4.06     0.13228     1.92752    46.82741
  1051  H   1.0    0.09    1.01     0.73699     3.85504    47.12977
  1052  H   1.0    0.07    1.00     1.39840     1.13384    48.30140
  1053  C   4.0   -0.10    3.99    -2.66262     1.94642    47.84786
  1054  H   1.0    0.09    1.01    -3.51300     3.02356    46.35498
  1055  H   1.0    0.06    0.99    -3.87205     0.17008    47.77227
  1056  O   6.0   -0.18    2.00    -3.11616     3.11805    50.22892
  1057  H   1.0    0.13    1.00    -3.62638     4.87549    50.32340
  1058  C   4.0   -0.15    4.09    29.29075    56.95634    21.63736
  1059  N   5.0   -0.26    4.00    28.89391    59.73424    21.29721
  1060  H   1.0    0.06    0.98    30.17892    56.37053    23.54599
  1061  H   1.0    0.09    1.00    30.44349    55.93589    20.29566
  1062  H   1.0    0.07    0.99    27.62779    55.67133    21.61846
  1063  C   4.0   -0.16    4.11    31.38835    61.10429    21.22162
  1064  H   1.0    0.08    1.00    31.31276    63.16409    21.29721
  1065  H   1.0    0.09    1.00    32.37101    60.42399    19.55866
  1066  H   1.0    0.06    0.98    32.50329    60.59406    23.01686
  1067  C   4.0   -0.24    4.13    27.68449    60.21612    18.70829
  1068  H   1.0    0.10    1.00    27.49551    62.14364    18.17916
  1069  H   1.0    0.13    1.01    25.96483    59.41298    18.82167
  1070  H   1.0    0.07    0.99    28.78053    59.26181    17.15871
  1071  C   4.0   -0.10    4.10    27.23095    60.85862    23.33812
  1072  H   1.0    0.08    1.00    27.23095    62.93732    23.16804
  1073  H   1.0    0.09    1.00    28.21361    60.61296    25.11446
  1074  C   4.0   -0.16    4.00    24.24518    60.29171    23.73496
  1075  H   1.0    0.12    1.01    23.81055    58.43033    23.90503
  1076  H   1.0    0.10    1.01    23.28142    61.23657    22.26097
  1077  O   6.0   -0.16    2.01    23.20583    61.34995    25.85145
  1078  H   1.0    0.10    1.00    21.50508    62.14364    25.51130
  1079  C   4.0   -0.17    4.14    37.60555    58.73268    13.15249
  1080  N   5.0   -0.26    4.01    38.04018    60.61296    11.16828
  1081  H   1.0    0.12    1.01    36.18825    59.43188    14.28633
  1082  H   1.0    0.06    0.99    36.77407    56.82406    12.60447
  1083  H   1.0    0.07    0.99    39.28740    58.48702    14.43751
  1084  C   4.0   -0.23    4.10    38.87166    63.16409    12.24542
  1085  H   1.0    0.10    1.00    40.47793    63.12630    13.39816
  1086  H   1.0    0.11    1.01    37.34098    63.57983    13.41705
  1087  H   1.0    0.08    1.00    39.45748    64.63808    10.92262
  1088  C   4.0   -0.16    4.10    40.17557    59.56416     9.58091
  1089  H   1.0    0.05    0.95    40.68580    60.48068     7.55890
  1090  H   1.0    0.07    0.99    39.66535    57.63664     8.84392
  1091  H   1.0    0.11    1.00    41.81964    58.99724    10.46908
  1092  C   4.0   -0.11    4.12    35.64023    60.78304     9.52422
  1093  H   1.0    0.07    1.00    34.01507    61.57672    10.65805
  1094  H   1.0    0.10    1.01    35.28118    59.01614     8.69274
  1095  C   4.0   -0.12    4.02    35.60244    62.82394     7.33214
  1096  H   1.0    0.07    1.00    36.96304    62.25702     5.83925
  1097  H   1.0    0.11    1.01    36.01818    64.50580     8.23921
  1098  O   6.0   -0.13    1.96    33.39146    62.50269     6.04712
  1099  H   1.0    0.07    0.95    32.61667    64.41131     5.97153
  1100  C   4.0   -0.14    4.07    34.95993    22.69561     0.66140
  1101  N   5.0   -0.26    4.01    37.05753    23.96173     2.32436
  1102  H   1.0    0.08    1.00    33.93948    24.18849    -0.38172
  1103  H   1.0    0.05    0.97    33.63712    21.37280     1.87083
  1104  H   1.0    0.07    0.99    35.86700    21.61846    -0.92975
[...]
  2463  O   2.091    C 2460 1.064    H 2464 0.736    O  591 0.112    C 2457 0.078
  2464  H   0.974    O 2463 0.736    O  591 0.219
  2465  C   3.914    H 2469 0.978    H 2468 0.975    H 2467 0.970    N 2466 0.933
  2466  N   3.750    C 2470 0.955    C 2465 0.933    C 2474 0.915    C 2478 0.866
  2467  H   0.995    C 2465 0.970
  2468  H   0.995    C 2465 0.975
  2469  H   0.996    C 2465 0.978
  2470  C   3.919    H 2473 0.973    H 2472 0.971    H 2471 0.970    N 2466 0.955
  2471  H   0.996    C 2470 0.970
  2472  H   0.996    C 2470 0.971
  2473  H   0.997    C 2470 0.973
  2474  C   3.900    H 2477 0.979    H 2475 0.977    H 2476 0.971    N 2466 0.915
  2475  H   0.997    C 2474 0.977
  2476  H   0.991    C 2474 0.971
  2477  H   0.998    C 2474 0.979
  2478  C   3.868    C 2481 0.967    H 2480 0.961    H 2479 0.960    N 2466 0.866    O 2484 0.066
  2479  H   0.999    C 2478 0.960
  2480  H   0.996    C 2478 0.961
  2481  C   3.962    O 2484 1.028    H 2483 0.970    C 2478 0.967    H 2482 0.963
  2482  H   0.999    C 2481 0.963
  2483  H   0.998    C 2481 0.970
  2484  O   2.096    C 2481 1.028    H 2485 0.842    C 2478 0.066    O  529 0.063
  2485  H   0.973    O 2484 0.842    O  529 0.118
  2486  C   3.892    H 2488 0.976    H 2489 0.974    H 2490 0.972    N 2487 0.920
  2487  N   3.760    C 2495 0.939    C 2491 0.933    C 2486 0.920    C 2499 0.894
  2488  H   0.996    C 2486 0.976
  2489  H   0.995    C 2486 0.974
  2490  H   0.994    C 2486 0.972
  2491  C   3.913    H 2493 0.982    H 2492 0.973    H 2494 0.972    N 2487 0.933
  2492  H   0.996    C 2491 0.973
  2493  H   0.998    C 2491 0.982
  2494  H   0.994    C 2491 0.972
  2495  C   3.911    H 2497 0.973    H 2496 0.971    H 2498 0.969    N 2487 0.939
  2496  H   0.994    C 2495 0.971
  2497  H   0.998    C 2495 0.973
  2498  H   0.993    C 2495 0.969
  2499  C   3.893    H 2501 0.970    C 2502 0.968    H 2500 0.963    N 2487 0.894
  2500  H   0.994    C 2499 0.963
  2501  H   0.999    C 2499 0.970
  2502  C   3.951    O 2505 1.020    H 2504 0.969    C 2499 0.968    H 2503 0.966
  2503  H   0.997    C 2502 0.966
  2504  H   0.999    C 2502 0.969
  2505  O   2.064    C 2502 1.020    H 2506 0.864    O  207 0.061
  2506  H   0.979    O 2505 0.864    O  207 0.106
  2507  C   3.911    H 2510 0.969    H 2509 0.943    H 2511 0.942    N 2508 0.849    C 2520 0.101
  2508  N   3.287    C 2512 0.925    C 2516 0.866    C 2507 0.849    C 2520 0.438    C 2523 0.052
  2509  H   0.998    C 2507 0.943
  2510  H   0.998    C 2507 0.969
  2511  H   0.996    C 2507 0.942
  2512  C   3.926    H 2514 0.974    H 2515 0.967    H 2513 0.956    N 2508 0.925
  2513  H   0.998    C 2512 0.956
  2514  H   0.997    C 2512 0.974
  2515  H   0.998    C 2512 0.967
  2516  C   3.922    H 2519 0.972    H 2517 0.963    H 2518 0.957    N 2508 0.866    C 2520 0.068
  2517  H   0.998    C 2516 0.963
  2518  H   0.996    C 2516 0.957
  2519  H   0.997    C 2516 0.972
  2520  C   3.573    H 2521 0.951    H 2522 0.942    C 2523 0.931    N 2508 0.438    C 2507 0.101    C 2516 0.068
  2521  H   0.999    C 2520 0.951
  2522  H   1.000    C 2520 0.942
  2523  C   3.920    H 2525 0.974    H 2524 0.960    C 2520 0.931    O 2526 0.920    N 2508 0.052
  2524  H   0.999    C 2523 0.960
  2525  H   0.998    C 2523 0.974
  2526  O   1.990    H 2527 0.964    C 2523 0.920
  2527  H   0.974    O 2526 0.964
  2528  C   3.925    H 2532 0.976    H 2531 0.975    H 2530 0.971    N 2529 0.951
  2529  N   3.759    C 2528 0.951    C 2533 0.951    C 2537 0.913    C 2541 0.864
  2530  H   0.997    C 2528 0.971
  2531  H   0.996    C 2528 0.975
  2532  H   0.996    C 2528 0.976
  2533  C   3.918    H 2536 0.977    H 2534 0.975    H 2535 0.968    N 2529 0.951
  2534  H   0.996    C 2533 0.975
  2535  H   0.995    C 2533 0.968
  2536  H   0.997    C 2533 0.977
  2537  C   3.898    H 2539 0.981    H 2538 0.980    H 2540 0.979    N 2529 0.913
  2538  H   0.996    C 2537 0.980
  2539  H   0.995    C 2537 0.981
  2540  H   0.995    C 2537 0.979
  2541  C   3.850    H 2543 0.966    H 2542 0.960    C 2544 0.930    N 2529 0.864    O 2547 0.085
  2542  H   0.998    C 2541 0.960
  2543  H   0.998    C 2541 0.966
  2544  C   3.954    O 2547 1.056    H 2546 0.969    H 2545 0.963    C 2541 0.930
  2545  H   0.999    C 2544 0.963
  2546  H   0.997    C 2544 0.969
  2547  O   2.143    C 2544 1.056    H 2548 0.826    C 2541 0.085    O  193 0.074
  2548  H   0.974    O 2547 0.826    O  193 0.134
  2549  C   3.904    H 2553 0.976    H 2551 0.968    H 2552 0.965    N 2550 0.942
  2550  N   3.768    C 2554 0.945    C 2549 0.942    C 2558 0.911    C 2562 0.896
  2551  H   0.995    C 2549 0.968
  2552  H   0.995    C 2549 0.965
  2553  H   0.996    C 2549 0.976
  2554  C   3.923    H 2556 0.980    H 2555 0.975    H 2557 0.974    N 2550 0.945
  2555  H   0.994    C 2554 0.975
  2556  H   0.999    C 2554 0.980
  2557  H   0.996    C 2554 0.974
  2558  C   3.894    H 2561 0.980    H 2560 0.975    H 2559 0.975    N 2550 0.911
  2559  H   0.993    C 2558 0.975
  2560  H   0.996    C 2558 0.975
  2561  H   0.995    C 2558 0.980
  2562  C   3.894    C 2565 0.979    H 2564 0.961    H 2563 0.960    N 2550 0.896    O 2568 0.050
  2563  H   0.995    C 2562 0.960
  2564  H   0.998    C 2562 0.961
  2565  C   3.964    O 2568 1.024    C 2562 0.979    H 2567 0.969    H 2566 0.963
  2566  H   0.998    C 2565 0.963
  2567  H   0.999    C 2565 0.969
  2568  O   2.083    C 2565 1.024    H 2569 0.870    O  312 0.060    C 2562 0.050
  2569  H   0.977    O 2568 0.870    O  312 0.094
  2570  C   3.893    H 2572 0.980    H 2574 0.975    H 2573 0.974    N 2571 0.918
  2571  N   3.754    C 2579 0.963    C 2575 0.924    C 2570 0.918    C 2583 0.867
  2572  H   0.997    C 2570 0.980
  2573  H   0.993    C 2570 0.974
  2574  H   0.995    C 2570 0.975
  2575  C   3.896    H 2578 0.983    H 2577 0.976    H 2576 0.960    N 2571 0.924
  2576  H   0.991    C 2575 0.960
  2577  H   0.997    C 2575 0.976
  2578  H   0.998    C 2575 0.983
  2579  C   3.933    H 2580 0.976    H 2581 0.976    H 2582 0.976    N 2571 0.963
  2580  H   0.997    C 2579 0.976
  2581  H   0.996    C 2579 0.976
  2582  H   0.997    C 2579 0.976
  2583  C   3.852    H 2584 0.964    H 2585 0.955    C 2586 0.945    N 2571 0.867    O 2589 0.070
  2584  H   0.998    C 2583 0.964
  2585  H   0.999    C 2583 0.955
  2586  C   3.949    O 2589 1.056    H 2588 0.964    H 2587 0.951    C 2583 0.945
  2587  H   0.998    C 2586 0.951
  2588  H   1.000    C 2586 0.964
  2589  O   2.098    C 2586 1.056    H 2590 0.786    O   67 0.082    C 2583 0.070
  2590  H   0.971    O 2589 0.786    O   67 0.160
  2591  C   3.909    H 2594 0.976    H 2593 0.968    H 2595 0.967    N 2592 0.943
  2592  N   3.760    C 2600 0.945    C 2591 0.943    C 2596 0.942    C 2604 0.849
  2593  H   0.996    C 2591 0.968
  2594  H   0.995    C 2591 0.976
  2595  H   0.996    C 2591 0.967
  2596  C   3.918    H 2597 0.977    H 2599 0.977    H 2598 0.975    N 2592 0.942
  2597  H   0.996    C 2596 0.977
  2598  H   0.997    C 2596 0.975
  2599  H   0.997    C 2596 0.977
  2600  C   3.916    H 2603 0.983    H 2601 0.973    H 2602 0.972    N 2592 0.945
  2601  H   0.996    C 2600 0.973
  2602  H   0.993    C 2600 0.972
  2603  H   0.998    C 2600 0.983
  2604  C   3.864    C 2607 0.968    H 2606 0.966    H 2605 0.963    N 2592 0.849    O 2610 0.064
  2605  H   0.998    C 2604 0.963
  2606  H   0.997    C 2604 0.966
  2607  C   3.962    O 2610 1.032    H 2608 0.971    C 2604 0.968    H 2609 0.959
  2608  H   0.999    C 2607 0.971
  2609  H   0.998    C 2607 0.959
  2610  O   2.081    C 2607 1.032    H 2611 0.832    O   52 0.078    C 2604 0.064
  2611  H   0.974    O 2610 0.832    O   52 0.127
  2612  C   3.930    H 2614 0.980    H 2615 0.977    H 2616 0.977    N 2613 0.959
  2613  N   3.745    C 2612 0.959    C 2621 0.931    C 2617 0.921    C 2625 0.850
  2614  H   0.997    C 2612 0.980
  2615  H   0.997    C 2612 0.977
  2616  H   0.996    C 2612 0.977
  2617  C   3.896    H 2618 0.978    H 2619 0.977    H 2620 0.976    N 2613 0.921
  2618  H   0.998    C 2617 0.978
  2619  H   0.993    C 2617 0.977
  2620  H   0.994    C 2617 0.976
  2621  C   3.909    H 2623 0.982    H 2622 0.976    H 2624 0.976    N 2613 0.931
  2622  H   0.993    C 2621 0.976
  2623  H   0.998    C 2621 0.982
  2624  H   0.994    C 2621 0.976
  2625  C   3.860    H 2627 0.966    H 2626 0.961    C 2628 0.959    N 2613 0.850    O 2631 0.068
  2626  H   0.996    C 2625 0.961
  2627  H   0.998    C 2625 0.966
  2628  C   3.954    O 2631 1.031    H 2630 0.966    H 2629 0.964    C 2625 0.959
  2629  H   0.999    C 2628 0.964
  2630  H   0.998    C 2628 0.966
  2631  O   2.028    C 2628 1.031    H 2632 0.713    O  634 0.123    C 2625 0.068
  2632  H   0.973    O 2631 0.713    O  634 0.245
  2633  C   3.893    H 2636 0.980    H 2635 0.974    H 2637 0.973    N 2634 0.907
  2634  N   3.755    C 2642 0.948    C 2638 0.914    C 2646 0.911    C 2633 0.907
  2635  H   0.993    C 2633 0.974
  2636  H   0.996    C 2633 0.980
  2637  H   0.995    C 2633 0.973
  2638  C   3.895    H 2639 0.979    H 2640 0.976    H 2641 0.975    N 2634 0.914
  2639  H   0.995    C 2638 0.979
  2640  H   0.996    C 2638 0.976
  2641  H   0.995    C 2638 0.975
  2642  C   3.916    H 2643 0.975    H 2644 0.970    H 2645 0.970    N 2634 0.948
  2643  H   0.998    C 2642 0.975
  2644  H   0.995    C 2642 0.970
  2645  H   0.996    C 2642 0.970
  2646  C   3.896    H 2648 0.973    C 2649 0.966    H 2647 0.959    N 2634 0.911
  2647  H   0.994    C 2646 0.959
  2648  H   0.998    C 2646 0.973
  2649  C   3.959    O 2652 1.016    H 2650 0.978    C 2646 0.966    H 2651 0.965
  2650  H   0.999    C 2649 0.978
  2651  H   0.998    C 2649 0.965
  2652  O   2.042    C 2649 1.016    H 2653 0.842    O   24 0.073
  2653  H   0.977    O 2652 0.842    O   24 0.126
  2654  C   3.903    H 2657 0.981    H 2658 0.973    H 2656 0.971    N 2655 0.933
  2655  N   3.747    C 2654 0.933    C 2659 0.932    C 2663 0.913    C 2667 0.896
  2656  H   0.994    C 2654 0.971
  2657  H   0.998    C 2654 0.981
  2658  H   0.994    C 2654 0.973
  2659  C   3.909    H 2660 0.979    H 2662 0.976    H 2661 0.971    N 2655 0.932
  2660  H   0.996    C 2659 0.979
  2661  H   0.996    C 2659 0.971
  2662  H   0.996    C 2659 0.976
  2663  C   3.886    H 2664 0.973    H 2665 0.973    H 2666 0.963    N 2655 0.913
  2664  H   0.995    C 2663 0.973
  2665  H   0.996    C 2663 0.973
  2666  H   0.992    C 2663 0.963
  2667  C   3.889    C 2670 0.977    H 2668 0.967    H 2669 0.964    N 2655 0.896
  2668  H   0.997    C 2667 0.967
  2669  H   0.997    C 2667 0.964
  2670  C   3.954    O 2673 1.008    C 2667 0.977    H 2671 0.972    H 2672 0.963
  2671  H   0.999    C 2670 0.972
  2672  H   0.997    C 2670 0.963
  2673  O   2.024    C 2670 1.008    H 2674 0.823    O   53 0.070
  2674  H   0.975    O 2673 0.823    O   53 0.130
  2675  C   3.925    H 2677 0.978    H 2678 0.970    H 2679 0.968    N 2676 0.945
  2676  N   3.763    C 2675 0.945    C 2680 0.931    C 2684 0.918    C 2688 0.893
  2677  H   0.999    C 2675 0.978
  2678  H   0.995    C 2675 0.970
  2679  H   0.994    C 2675 0.968
  2680  C   3.904    H 2682 0.979    H 2681 0.975    H 2683 0.972    N 2676 0.931
  2681  H   0.994    C 2680 0.975
  2682  H   0.997    C 2680 0.979
  2683  H   0.993    C 2680 0.972
  2684  C   3.894    H 2687 0.976    H 2685 0.974    H 2686 0.965    N 2676 0.918
  2685  H   0.994    C 2684 0.974
  2686  H   0.995    C 2684 0.965
  2687  H   0.995    C 2684 0.976
  2688  C   3.901    C 2691 0.988    H 2690 0.968    H 2689 0.963    N 2676 0.893
  2689  H   0.997    C 2688 0.963
  2690  H   0.996    C 2688 0.968
  2691  C   3.953    O 2694 0.999    C 2688 0.988    H 2693 0.976    H 2692 0.965
  2692  H   0.996    C 2691 0.965
  2693  H   0.999    C 2691 0.976
  2694  O   2.069    C 2691 0.999    H 2695 0.974
  2695  H   0.979    O 2694 0.974
  2696  C   3.913    H 2700 0.979    H 2698 0.976    H 2699 0.975    N 2697 0.934
  2697  N   3.763    C 2705 0.970    C 2696 0.934    C 2701 0.912    C 2709 0.880
  2698  H   0.996    C 2696 0.976
  2699  H   0.994    C 2696 0.975
  2700  H   0.998    C 2696 0.979
  2701  C   3.883    H 2702 0.973    H 2703 0.973    H 2704 0.970    N 2697 0.912
  2702  H   0.994    C 2701 0.973
  2703  H   0.996    C 2701 0.973
  2704  H   0.993    C 2701 0.970
  2705  C   3.934    H 2708 0.978    H 2706 0.974    H 2707 0.973    N 2697 0.970
  2706  H   0.995    C 2705 0.974
  2707  H   0.997    C 2705 0.973
  2708  H   0.998    C 2705 0.978
  2709  C   3.878    H 2710 0.969    H 2711 0.966    C 2712 0.955    N 2697 0.880    O 2715 0.051
  2710  H   0.999    C 2709 0.969
  2711  H   0.995    C 2709 0.966
  2712  C   3.951    O 2715 1.044    H 2713 0.961    H 2714 0.961    C 2709 0.955
  2713  H   0.999    C 2712 0.961
  2714  H   0.998    C 2712 0.961
  2715  O   2.082    C 2712 1.044    H 2716 0.868    C 2709 0.051
  2716  H   0.968    O 2715 0.868    O  536 0.077
  2717  C   3.908    H 2721 0.979    H 2719 0.974    H 2720 0.973    N 2718 0.938
  2718  N   3.769    C 2722 0.939    C 2717 0.938    C 2726 0.925    C 2730 0.900
  2719  H   0.995    C 2717 0.974
  2720  H   0.993    C 2717 0.973
  2721  H   0.998    C 2717 0.979
  2722  C   3.916    H 2724 0.980    H 2723 0.979    H 2725 0.973    N 2718 0.939
  2723  H   0.996    C 2722 0.979
  2724  H   0.998    C 2722 0.980
  2725  H   0.992    C 2722 0.973
  2726  C   3.901    H 2729 0.979    H 2728 0.975    H 2727 0.974    N 2718 0.925
  2727  H   0.997    C 2726 0.974
  2728  H   0.995    C 2726 0.975
  2729  H   0.995    C 2726 0.979
  2730  C   3.889    H 2732 0.973    H 2731 0.972    C 2733 0.954    N 2718 0.900
  2731  H   0.997    C 2730 0.972
  2732  H   0.997    C 2730 0.973
  2733  C   3.954    O 2736 1.026    H 2734 0.975    H 2735 0.974    C 2730 0.954
  2734  H   0.998    C 2733 0.975
  2735  H   0.996    C 2733 0.974
  2736  O   2.079    C 2733 1.026    H 2737 0.963
  2737  H   0.975    O 2736 0.963
  2738  C   3.909    H 2740 0.973    H 2742 0.971    H 2741 0.970    N 2739 0.940
  2739  N   3.757    C 2743 0.942    C 2738 0.940    C 2747 0.922    C 2751 0.876
  2740  H   0.995    C 2738 0.973
  2741  H   0.996    C 2738 0.970
  2742  H   0.997    C 2738 0.971
  2743  C   3.919    H 2746 0.976    H 2745 0.976    H 2744 0.976    N 2739 0.942
  2744  H   0.996    C 2743 0.976
  2745  H   0.995    C 2743 0.976
  2746  H   0.996    C 2743 0.976
  2747  C   3.909    H 2749 0.978    H 2748 0.974    H 2750 0.973    N 2739 0.922
  2748  H   0.996    C 2747 0.974
  2749  H   0.996    C 2747 0.978
  2750  H   0.993    C 2747 0.973
  2751  C   3.870    H 2753 0.964    H 2752 0.963    C 2754 0.955    N 2739 0.876    O 2757 0.061
  2752  H   0.999    C 2751 0.963
  2753  H   0.997    C 2751 0.964
  2754  C   3.950    O 2757 1.028    H 2755 0.966    H 2756 0.963    C 2751 0.955
  2755  H   0.998    C 2754 0.966
  2756  H   0.997    C 2754 0.963
  2757  O   2.017    C 2754 1.028    H 2758 0.704    O   10 0.127    C 2751 0.061
  2758  H   0.976    O 2757 0.704    O   10 0.255
  2759  C   3.903    H 2761 0.976    H 2763 0.972    H 2762 0.969    N 2760 0.942
  2760  N   3.733    C 2759 0.942    C 2768 0.933    C 2764 0.903    C 2772 0.876
  2761  H   0.995    C 2759 0.976
  2762  H   0.994    C 2759 0.969
  2763  H   0.996    C 2759 0.972
  2764  C   3.886    H 2767 0.980    H 2765 0.978    H 2766 0.974    N 2760 0.903
  2765  H   0.994    C 2764 0.978
  2766  H   0.995    C 2764 0.974
  2767  H   0.994    C 2764 0.980
  2768  C   3.904    H 2769 0.981    H 2771 0.978    H 2770 0.963    N 2760 0.933
  2769  H   0.998    C 2768 0.981
  2770  H   0.992    C 2768 0.963
  2771  H   0.993    C 2768 0.978
  2772  C   3.884    C 2775 0.977    H 2773 0.965    H 2774 0.964    N 2760 0.876    O 2778 0.054
  2773  H   0.998    C 2772 0.965
  2774  H   0.996    C 2772 0.964
  2775  C   3.952    O 2778 1.009    C 2772 0.977    H 2776 0.968    H 2777 0.960
  2776  H   0.998    C 2775 0.968
  2777  H   0.997    C 2775 0.960
  2778  O   2.027    C 2775 1.009    H 2779 0.790    O  291 0.092    C 2772 0.054
  2779  H   0.974    O 2778 0.790    O  291 0.167
  2780  C   3.897    H 2782 0.976    H 2784 0.973    H 2783 0.967    N 2781 0.929
  2781  N   3.770    C 2785 0.956    C 2789 0.943    C 2780 0.929    C 2793 0.880
  2782  H   0.997    C 2780 0.976
  2783  H   0.993    C 2780 0.967
  2784  H   0.995    C 2780 0.973
  2785  C   3.924    H 2788 0.975    H 2786 0.974    H 2787 0.970    N 2781 0.956
  2786  H   0.996    C 2785 0.974
  2787  H   0.996    C 2785 0.970
  2788  H   0.997    C 2785 0.975
  2789  C   3.926    H 2790 0.980    H 2791 0.977    H 2792 0.975    N 2781 0.943
  2790  H   0.997    C 2789 0.980
  2791  H   0.995    C 2789 0.977
  2792  H   0.996    C 2789 0.975
  2793  C   3.884    C 2796 0.970    H 2795 0.968    H 2794 0.965    N 2781 0.880    O 2799 0.050
  2794  H   0.996    C 2793 0.965
  2795  H   0.996    C 2793 0.968
  2796  C   3.943    O 2799 1.018    C 2793 0.970    H 2797 0.967    H 2798 0.949
  2797  H   0.998    C 2796 0.967
  2798  H   1.000    C 2796 0.949
  2799  O   2.066    C 2796 1.018    H 2800 0.854    O  683 0.069    C 2793 0.050
  2800  H   0.977    O 2799 0.854    O  683 0.109
 
 --------------------------------------------
          xTB calculation for sTDA...
 --------------------------------------------
 
 reading parameter file /home/karl/Software/xtb2/.param_stda2.xtb
 
      method parameters     
 k(s)        :  1.6000
 k(p)        :  2.1800
 k(d)        :  1.9500
 k(f)        :  2.0000
 k(R-V)      :  2.2750
 k(R-R)      :  1.7650
 Tscal       :  0.2580
 Gscal       :  1.0000
 fpol        :  1.0000
 Zcnf        :  0.3430
 Zqf         :  0.0000
 kcn         :  2.7000
 Ryd Hsplit  :  0.7000
 lshift(virt):  3.1000
 lshift(OS)  :  0.2000
 wllscaling  :  2.6000
 
 mowrcut     : 3.000
 
  Z AO/shell   Hii/eV     exponent
  1     Sun Feb 14 09:53:25 CET 2016    EN: 2.327 GAM: 0.473  GM3: 0.0000
     1s    -14.339618    1.220000
     2sp    -3.348946    0.600000
  6     Sun Feb 14 09:53:25 CET 2016    EN: 2.731 GAM: 0.422  GM3: 0.0000
     2s    -22.009312    1.565095
     2p    -13.020408    1.596905
     3sp    -3.914040    0.824500
  7     Sun Feb 14 09:53:25 CET 2016    EN: 3.573 GAM: 0.504  GM3: 0.0000
     2s    -25.722000    2.064844
     2p    -18.684912    1.801692
     3sp    -4.344791    0.921400
  8     Sun Feb 14 09:53:25 CET 2016    EN: 3.700 GAM: 0.587  GM3: 0.0000
     2s    -33.859000    2.418661
     2p    -22.175911    1.973969
     3sp    -4.259392    1.013700
 
 Nbf   :        17300
 T(el) :     0.0
 calculating S/T integrals ...
 cpu time for ints    129.258202000000     
 Nao   :        17300
 making H0...
 making H1...
 cpu time for H       40.2344970000000     
 solving ...
 cpu time for diag    1687.55319400000     
 
 gap (eV)           :   3.102
 Koopmans IP (eV)   :  12.251
 Eel (Eh)           : -6363.741851

          eigenvalues
 #    :        3388       3389       3390       3391       3392       3393       3394       3395
 occ. :        2.000      2.000      2.000      2.000      2.000      2.000      2.000      2.000
 eps  :       -12.318    -12.312    -12.306    -12.302    -12.299    -12.295    -12.289    -12.284
 #    :        3396       3397       3398       3399       3400       3401       3402       3403
 occ. :        2.000      2.000      2.000      2.000      2.000      0.000      0.000      0.000
 eps  :       -12.282    -12.273    -12.268    -12.259    -12.252     -9.149     -9.146     -9.139
 #    :        3404       3405       3406       3407       3408       3409       3410       3411
 occ. :        0.000      0.000      0.000      0.000      0.000      0.000      0.000      0.000
 eps  :        -9.131     -9.129     -9.122     -9.121     -9.115     -9.111     -9.103     -9.092
                            1  SCC done.
 writing mo output ...
 molden style : F
 
speedup  3.00
cpu  time for all   39 m 52.6 s
wall time for all   13 m 16.6 s
