 
        ______________________________________
       |                                      |
       |           ==================         |
       |                 x T B                |
       |           ==================         |
       |               S. Grimme              |
       |        Universitaet Bonn, MCTC       |
       |         2015-18, Version 5.8.1       |
       |      Sun Jun  3 17:06:45 CEST 2018   |
       |______________________________________|
 
        This code comes without any warranty
        for non-commercial, academia use only.
        Preliminary GFN2 test version.
        Cite GFN-xTB work as:
        S. Grimme, C. Bannwarth, P. Shushkov
        JCTC, 13 (2017) 1989-2009
        for GFN2:
        C. Bannwarth, S. Ehlert, S. Grimme
        to be published.
        sTDA-xTB:
        S. Grimme  &  C. Bannwarth, JCP 145 (2016) 054103
        in the mass-spec context additionally:
        V. Asgeirsson, C.Bauer, S. Grimme, Chem. Sci. 8 (2017) 4879
 
        with help from
        P. Shushkov, G. Brandenburg, S. Dohm, J. Pisarek,
        F. März, M. Checinski, S. Ehrlich, S. Spicher, 
        P. Pracht, E. Caldeweyher, S. Ehlert, and C. Bannwarth.
 
        usage        :
        xtb <coord_file> [options]
        where <coord_file> is a valid file of TM)
        (*coord, Bohr) or xmol (*xyz, Angstroem)
        format.

        options:
        -chrg <int>   : molecular charge
        -uhf  <int>   : # of unpaired electrons(=2*S)
        -nox          : skip second, extended part in sTDA-xTB
        -pop          : do population analysis
                      : (default for -nox)
        -mowr <real>  : cut MO write above (def.3 Eh)
        -molden       : write formatted molden file
        -parx <file>  : read parameters for sTDA-xTB
                        calc (def:~/.param_stda2.xtb)
        -parv <file>  : read parameters for vTB part in
                        sTDA-xTB (def: ~/.param_stda1.xtb)
        -xtemp <real> : el. temp for xTB (def. 0 K)
        -etemp <real> : el. temp for GFN (def. 300 K)
        -fod          : calculate the FOD and write
                        molden.input file with
                        appropriate occupations
                        for plotting. Def. T=12500 K
 
        -gfn1         : use GFN-xTB
        -gfn2         : use GFN2-xTB
        -gfn2d3       : GFN2-xTB with D3 instead of D4
        -grad         : GFNn-xTB gradient
        -acc <real>   : GFNn-xTB accuracy (def. 1.0)
        -opt [level]  : optimize at GFNn-xTB
                      : level=crude,vloose,loose,
                      :       tight,vtight
        -hess         : compute Hessian at GFNn-xTB
        -ohess        : optimize and compute Hessian
        -omd          : optimize and do MD
        -siman        : conformational search
        -screen       : opt. loop over ensemble
        -gmd          : annealed MD for GMD procedure
        -modef        : vib mode following
        -gbsa [string1] [string2]
                        use GBSA implicit solvent
                        for solvent [string1] and
                        solvation state [string2]=
                        reference, bar1M (default=1M)
        additional GFN/opt/MD/siman options read from
        $XTBHOME/.xtbrc or $set in coordinate file
 
       spin and charge state information can be on:
       <.CHRG> (charge) and <.UHF> (=nalpha-nbeta)
       -uhf and -chrg override the file info.
       useful machine settings:
       setenv MKL_NUM_THREADS <NCORE_ON_YOUR_MACHINE>
       setenv OMP_STACKSIZE 500m
       limit stacksize unlimited
 
       total energies in Eh, gaps/HL energies in eV
       please read REVISION and HOWTO files carefully
         180  days left until this code expires
 =============================
  # OMP threads =           8
 =============================
 
 xtbhome directory:/home/karl/Software/xtb2/
 
 
 name of molecule           :
 comment line               :
 number of atoms            :  3024
 number of electrons        :  7344
 charge                     :  0
 spin                       : 0.0
 first test random number   :  0.3862
 
 -----------------------------------------
      charge density (VTB) calculation
 -----------------------------------------
 
      method parameters     
 k(s)        :  1.8000
 k(p)        :  2.8350
 k(d)        :  2.0860
 k(f)        :  2.0000
 Tscal       :  0.3300
 Gscal       :  0.3910
 fpol        :  1.0000
 Zcnf        :  0.6500
 Zqf         :  0.0000
 kcn         :  0.3000
 kEN1        : -0.5900
 wllscal     :  2.6000
 
     -------------------------
     ! NO SOLVENT MODEL USED !
     -------------------------
 
 doing EN charges ...
 sum q : -0.1154632D-13
 point charge moment (au)
     X       Y       Z   
   4.7706  -1.5002   1.9829  total (Debye):   13.674
 
            Z      q(EN)   CN      Cart. coordinates
     1  C   4.0   -0.25    4.05    43.10465    49.37854    32.71116
     2  C   4.0    0.21    3.02    44.38966    51.47613    34.14735
     3  O   6.0   -0.10    1.21    43.08575    52.83674    35.60244
     4  O   6.0   -0.12    1.13    46.67623    51.43834    34.10955
     5  H   1.0    0.08    1.00    42.23537    50.07774    30.99151
     6  H   1.0    0.08    1.00    44.65422    48.13132    32.21983
     7  H   1.0    0.08    1.00    41.55507    48.37698    33.67492
     8  C   4.0   -0.26    4.04    16.32723    51.11709    46.09042
     9  C   4.0    0.20    3.02    17.57445    48.54706    46.31718
    10  O   6.0   -0.11    1.06    18.63270    47.71558    44.46525
    11  O   6.0   -0.09    1.06    17.76342    47.62109    48.50927
    12  H   1.0    0.09    1.00    17.74453    52.51548    45.75027
    13  H   1.0    0.07    1.00    15.15560    50.96591    44.35187
    14  H   1.0    0.09    1.00    15.06112    51.53283    47.60220
    15  C   4.0   -0.25    4.06    24.96328    21.24052    28.61045
    16  C   4.0    0.19    3.02    27.66559    20.52242    28.53486
    17  O   6.0   -0.10    1.07    28.02464    18.19806    28.51596
    18  O   6.0   -0.10    1.06    29.27185    22.22318    28.66714
    19  H   1.0    0.07    1.00    24.69872    23.20583    27.89236
    20  H   1.0    0.10    1.01    23.92393    19.99330    27.45772
    21  H   1.0    0.08    1.00    24.26408    21.07044    30.55687
    22  C   4.0   -0.22    4.03     0.85038    12.92573    49.20846
    23  C   4.0    0.20    3.01    -0.96754    10.77144    49.45413
    24  O   6.0   -0.10    1.05    -2.89506    10.94151    50.75804
    25  O   6.0   -0.10    1.06    -0.30614     8.82502    48.33919
    26  H   1.0    0.07    0.99     0.69920    14.09736    50.96591
    27  H   1.0    0.06    0.99     2.89128    12.28322    49.07618
    28  H   1.0    0.08    1.00     0.56692    14.22964    47.62109
    29  C   4.0   -0.24    4.02    23.03576    48.58485    12.60447
    30  C   4.0    0.17    3.01    20.39014    49.13287    11.56512
    31  O   6.0   -0.09    1.04    18.61380    50.03994    12.88793
    32  O   6.0   -0.09    1.07    20.06889    48.41478     9.29745
    33  H   1.0    0.09    1.00    22.86568    48.64155    14.62648
    34  H   1.0    0.09    1.00    23.77275    46.73292    12.18873
    35  H   1.0    0.06    0.99    24.54754    49.90766    11.84858
    36  C   4.0   -0.23    4.03    48.39588    32.35211    41.21492
    37  C   4.0    0.19    3.02    47.50771    31.36945    38.68269
    38  O   6.0   -0.12    1.23    48.11242    32.55998    36.77407
    39  O   6.0   -0.08    1.05    46.18490    29.36634    38.70159
    40  H   1.0    0.08    1.00    47.28094    31.59622    42.76450
    41  H   1.0    0.07    1.00    50.30450    31.40725    41.36610
    42  H   1.0    0.08    1.00    48.52816    34.43081    41.30941
    43  C   4.0   -0.27    4.06    29.08288    18.17916    44.93768
    44  C   4.0    0.19    3.02    29.00729    20.25786    46.77072
    45  O   6.0   -0.10    1.07    26.94749    21.37280    46.97859
    46  O   6.0   -0.09    1.06    31.02930    20.90037    47.84786
    47  H   1.0    0.10    1.01    27.51441    16.98864    45.18335
    48  H   1.0    0.09    1.00    30.72694    16.96974    45.03217
    49  H   1.0    0.08    1.00    28.95060    18.93505    43.01016
    50  C   4.0   -0.23    4.03    49.32185    53.97057    16.02488
    51  C   4.0    0.16    3.02    46.86520    55.10441    15.32568
    52  O   6.0   -0.08    1.04    45.03217    55.00992    16.93194
    53  O   6.0   -0.10    1.22    46.80851    56.33273    13.22808
    54  H   1.0    0.08    1.00    50.89032    54.76426    14.90994
    55  H   1.0    0.07    1.00    49.83207    54.55639    17.99019
    56  H   1.0    0.08    1.00    49.30295    51.91077    15.89260
    57  C   4.0   -0.24    4.04     1.37950     0.75589    35.05442
    58  C   4.0    0.20    3.01     1.37950    -0.53668    37.60555
    59  O   6.0   -0.11    1.06     2.58892    -2.46420    37.77562
    60  O   6.0   -0.09    1.05     0.39684     0.60471    39.43858
    61  H   1.0    0.08    1.00    -0.07937     0.24566    33.67492
    62  H   1.0    0.08    1.00     1.53068     2.81569    35.20559
    63  H   1.0    0.08    1.00     3.13695     0.07559    34.24183
    64  C   4.0   -0.22    4.02    52.83674     5.32903    15.59024
    65  C   4.0    0.20    3.01    53.19579     3.62827    17.85791
    66  O   6.0   -0.10    1.06    54.31072     1.60627    17.57445
    67  O   6.0   -0.10    1.06    52.40210     4.40306    19.89881
    68  H   1.0    0.06    0.99    54.70757     6.19830    14.94773
    69  H   1.0    0.08    1.00    52.11864     4.45975    13.88949
    70  H   1.0    0.07    1.00    51.43834     6.84081    15.96818
    71  C   4.0   -0.23    4.04    41.74405    23.84834    12.71786
    72  C   4.0    0.19    3.02    43.95503    24.24518    14.43751
    73  O   6.0   -0.09    1.09    44.16290    26.22940    15.77921
    74  O   6.0   -0.10    1.07    45.61798    22.65781    14.15405
    75  H   1.0    0.08    1.00    40.17557    23.01686    13.73831
    76  H   1.0    0.06    0.99    40.70470    25.66248    12.16984
    77  H   1.0    0.08    1.00    42.34876    22.86568    10.97931
    78  C   4.0   -0.29    4.03    28.19471    57.92010    46.37387
    79  C   4.0    0.18    3.01    28.40258    60.40320    47.82896
    80  O   6.0   -0.08    1.04    27.34433    62.34962    46.92190
    81  O   6.0   -0.09    1.05    29.78208    60.45989    49.75648
    82  H   1.0    0.08    1.00    26.38057    57.57995    45.48570
    83  H   1.0    0.12    1.00    29.17737    57.86341    44.71092
    84  H   1.0    0.08    1.00    28.49707    56.38942    47.71558
    85  C   4.0   -0.25    4.04    15.83590    36.81186    16.13826
    86  C   4.0    0.17    3.02    17.78232    38.07798    17.74453
    87  O   6.0   -0.09    1.06    17.08312    40.02440    18.95395
    88  O   6.0   -0.09    1.05    20.03110    37.32209    17.66894
    89  H   1.0    0.10    1.01    14.92883    38.22916    15.06112
    90  H   1.0    0.08    1.00    16.87525    35.41346    15.04222
    91  H   1.0    0.07    1.00    14.43751    35.90479    17.44217
    92  C   4.0   -0.28    4.05    55.74692    16.30833    13.56823
    93  C   4.0    0.18    3.02    57.41365    17.99019    15.15560
    94  O   6.0   -0.09    1.05    59.32228    18.89726    14.09736
    95  O   6.0   -0.09    1.05    56.69556    18.27365    17.40438
    96  H   1.0    0.09    1.01    56.01148    14.51310    14.43751
    97  H   1.0    0.08    1.00    56.16643    16.27054    11.56512
    98  H   1.0    0.10    1.01    53.91388    16.98864    13.92728
    99  C   4.0   -0.27    4.04    16.51620    27.70338    29.98995
   100  C   4.0    0.22    3.01    17.10202    29.72539    27.96794
   101  O   6.0   -0.11    1.15    19.04844    29.59311    26.70183
   102  O   6.0   -0.12    1.09    15.49575    31.29386    27.55220
   103  H   1.0    0.11    1.01    15.21229    28.36479    31.29386
   104  H   1.0    0.08    1.00    15.72252    26.02153    29.06399
   105  H   1.0    0.08    1.00    18.27365    27.17426    30.95371
   106  C   4.0   -0.27    4.04     3.17474    14.28633    31.61512
   107  C   4.0    0.18    3.01     0.58582    13.11470    31.42614
   108  O   6.0   -0.09    1.06     0.52912    11.03600    30.33010
   109  O   6.0   -0.08    1.04    -1.26990    14.21074    32.44659
   110  H   1.0    0.09    1.00     4.70542    12.94462    31.61512
   111  H   1.0    0.11    1.00     3.77945    15.51465    30.21672
   112  H   1.0    0.07    0.99     3.34481    15.25009    33.50484
   113  C   4.0   -0.24    4.05    10.56357    55.99258    48.11242
   114  C   4.0    0.19    3.01    10.65805    58.81583    48.09353
   115  O   6.0   -0.08    1.05    10.09114    60.02526    46.10931
   116  O   6.0   -0.10    1.07    11.45174    59.70400    50.07774
   117  H   1.0    0.07    1.00     9.99665    55.14220    49.94546
   118  H   1.0    0.09    1.00     9.37304    55.21779    46.69513
   119  H   1.0    0.07    1.00    12.58557    55.42566    48.11242
   120  C   4.0   -0.22    4.03    35.50795    55.84140    22.29877
   121  C   4.0    0.20    3.02    37.94570    57.22090    22.26097
   122  O   6.0   -0.09    1.06    39.98660    56.08707    22.50664
   123  O   6.0   -0.10    1.07    37.81342    59.51503    21.84523
   124  H   1.0    0.08    1.00    35.92369    53.95168    23.01686
   125  H   1.0    0.06    0.99    34.20404    56.89965    23.62157
   126  H   1.0    0.07    0.99    34.60088    55.72802    20.37125
   127  C   4.0   -0.28    4.03    10.96041    28.32699    37.79452
   128  C   4.0    0.17    3.02    10.43129    27.83566    34.99772
   129  O   6.0   -0.09    1.06    11.94307    26.38057    33.88279
   130  O   6.0   -0.09    1.05     8.78723    29.08288    33.78830
   131  H   1.0    0.10    1.01    12.52888    29.51752    38.00239
   132  H   1.0    0.08    1.00     9.22186    29.12068    38.60710
   133  H   1.0    0.09    1.01    11.35725    26.51286    38.55041
   134  C   4.0   -0.24    4.03    41.17713    32.37101     9.54312
   135  C   4.0    0.20    3.02    39.41968    30.59466     8.18251
   136  O   6.0   -0.10    1.17    39.26851    28.30809     8.76833
   137  O   6.0   -0.12    1.19    37.77562    31.52063     6.82191
   138  H   1.0    0.07    1.00    40.00550    33.61822    10.77144
   139  H   1.0    0.07    1.00    42.59442    31.31276    10.65805
   140  H   1.0    0.09    1.00    42.36766    33.37256     8.22031
   141  C   4.0   -0.24    4.05    35.69692    35.33788    31.50173
   142  C   4.0    0.20    3.03    37.58665    33.82609    30.10333
   143  O   6.0   -0.10    1.14    36.71738    32.38990    28.42148
   144  O   6.0   -0.10    1.06    39.83542    33.99617    30.65135
   145  H   1.0    0.09    1.00    33.82609    34.54419    31.50173
   146  H   1.0    0.07    0.99    35.99928    35.52685    33.59933
   147  H   1.0    0.08    1.00    35.60244    37.11422    30.48128
   148  C   4.0   -0.26    4.05     0.17008    29.04509    40.53462
   149  C   4.0    0.20    3.02     0.68030    26.60734    39.23071
   150  O   6.0   -0.10    1.12     1.17163    24.75541    40.62911
   151  O   6.0   -0.10    1.06     0.56692    26.53175    36.92525
   152  H   1.0    0.08    1.00     1.41729    30.57577    39.96770
   153  H   1.0    0.07    1.00    -1.61005    29.55531    39.57086
   154  H   1.0    0.09    1.00     0.07559    28.89391    42.53773
   155  C   4.0   -0.27    4.04     4.68652    31.65291    20.14448
   156  C   4.0    0.17    3.03     4.55424    33.31587    17.83901
   157  O   6.0   -0.09    1.17     6.21720    35.07331    17.87681
   158  O   6.0   -0.08    1.05     3.06136    32.76785    16.04377
   159  H   1.0    0.09    1.01     4.85660    29.83877    19.25631
   160  H   1.0    0.10    1.01     6.16051    32.27652    21.33501
   161  H   1.0    0.08    1.00     2.89128    31.78519    21.18383
   162  C   4.0   -0.23    4.03    26.00263    16.34613     6.76522
   163  C   4.0    0.18    3.03    27.94905    17.65004     8.33369
   164  O   6.0   -0.11    1.24    27.66559    17.34768    10.67695
   165  O   6.0   -0.09    1.05    29.57421    19.12403     7.40773
   166  H   1.0    0.07    1.00    24.73651    17.97129     6.29279
   167  H   1.0    0.07    0.99    26.89080    15.34457     5.10226
   168  H   1.0    0.09    1.01    25.34122    14.89104     7.99354
   169  C   4.0   -0.25    4.03    19.04844    35.45126     1.11494
   170  C   4.0    0.19    3.01    19.25631    38.07798     0.09449
   171  O   6.0   -0.08    1.06    18.70829    39.75983     1.71965
   172  O   6.0   -0.10    1.05    19.52087    38.56931    -2.16752
   173  H   1.0    0.08    1.00    17.17761    34.95993     1.83303
   174  H   1.0    0.10    1.00    19.38859    34.14735    -0.35338
   175  H   1.0    0.06    0.99    20.23896    35.07331     2.85349
   176  C   4.0   -0.20    4.02     9.14627     0.85038    12.30212
   177  C   4.0    0.19    3.01    10.03444     0.52912     9.61871
   178  O   6.0   -0.09    1.06    12.18873    -0.44220     9.42973
   179  O   6.0   -0.09    1.05     8.46597     0.96376     7.91795
   180  H   1.0    0.06    0.99     7.38883     2.07870    12.22653
   181  H   1.0    0.07    0.99     8.71164    -0.95242    13.28477
   182  H   1.0    0.06    0.99    10.52577     2.09760    13.41705
   183  C   4.0   -0.26    4.03    42.14089    32.31431    47.12977
   184  C   4.0    0.19    3.02    40.30785    30.14113    47.63999
   185  O   6.0   -0.09    1.06    40.83698    28.74273    49.47303
   186  O   6.0   -0.11    1.19    38.32364    29.98995    46.39277
   187  H   1.0    0.10    1.01    42.19758    33.50484    48.69824
   188  H   1.0    0.08    1.00    43.91723    31.33166    46.82741
   189  H   1.0    0.07    1.00    41.61177    33.48594    45.46681
   190  C   4.0   -0.31    4.05    33.75051    21.44839    15.38237
   191  C   4.0    0.18    3.03    35.54575    20.16338    17.12092
   192  O   6.0   -0.09    1.11    35.31898    20.52242    19.48307
   193  O   6.0   -0.11    1.22    37.15201    18.68939    16.17605
   194  H   1.0    0.09    1.01    32.82454    20.03110    14.30523
   195  H   1.0    0.09    1.00    32.37101    22.46884    16.44062
   196  H   1.0    0.11    1.01    34.84655    22.60112    14.26743
   197  C   4.0   -0.25    4.04    18.74608    34.69537    33.44815
   198  C   4.0    0.20    3.02    18.12247    35.41346    36.05597
   199  O   6.0   -0.11    1.20    19.19962    37.26540    37.03863
   200  O   6.0   -0.10    1.12    16.76187    34.20404    37.54885
   201  H   1.0    0.09    1.00    19.48307    32.80564    33.27807
   202  H   1.0    0.07    1.00    19.89881    36.20715    32.54108
   203  H   1.0    0.08    1.00    17.00753    34.63868    32.35211
   204  C   4.0   -0.30    4.04    52.09974    56.37053    54.51859
   205  C   4.0    0.19    3.01    54.42411    57.23980    56.01148
   206  O   6.0   -0.09    1.05    56.54438    56.84296    55.06661
   207  O   6.0   -0.10    1.05    53.91388    58.58150    57.85774
   208  H   1.0    0.12    1.01    50.87142    57.82561    54.34852
   209  H   1.0    0.07    1.00    52.76115    55.57684    52.68556
   210  H   1.0    0.10    1.00    51.13598    54.85874    55.38787
   211  C   4.0   -0.26    4.05    21.84523    12.01866    43.14244
   212  C   4.0    0.18    3.01    20.25786    11.60292    45.46681
   213  O   6.0   -0.09    1.05    21.01375    12.15094    47.65889
   214  O   6.0   -0.10    1.07    18.42483    10.18562    45.08886
   215  H   1.0    0.08    1.00    21.52398    13.64382    41.89522
   216  H   1.0    0.10    1.01    23.77275    12.13204    43.59598
   217  H   1.0    0.08    1.00    21.56177    10.48798    41.78184
   218  C   4.0   -0.25    4.02    46.27939     6.48176     7.99354
   219  C   4.0    0.18    3.01    45.63688     8.18251     5.68808
   220  O   6.0   -0.10    1.15    45.50460    10.56357     5.91484
   221  O   6.0   -0.09    1.05    45.73137     7.08647     3.60938
   222  H   1.0    0.08    1.00    44.67312     5.17785     7.89905
   223  H   1.0    0.07    0.99    48.15022     5.49910     8.05023
   224  H   1.0    0.10    1.00    46.14711     7.52111     9.67540
   225  C   4.0   -0.23    4.03    16.32723    56.33273    19.36969
   226  C   4.0    0.17    3.01    18.89726    57.46657    18.87836
   227  O   6.0   -0.09    1.05    18.89726    59.49613    17.65004
   228  O   6.0   -0.08    1.07    20.84368    56.54060    19.97440
   229  H   1.0    0.07    1.00    16.59179    54.82095    20.80588
   230  H   1.0    0.07    1.00    14.90994    57.67444    20.10668
   231  H   1.0    0.08    1.00    15.62803    55.35007    17.70673
   232  C   4.0   -0.21    4.01    43.52039    11.69740    24.50975
   233  C   4.0    0.19    3.01    46.05262    12.62337    23.35701
   234  O   6.0   -0.10    1.08    46.09042    13.36036    21.12714
   235  O   6.0   -0.09    1.05    48.05573    12.52888    24.62313
   236  H   1.0    0.07    0.99    42.04640    11.69740    22.97907
   237  H   1.0    0.08    1.00    43.46370     9.71319    25.13336
   238  H   1.0    0.07    0.99    42.95347    12.90683    26.15381
   239  C   4.0   -0.23    4.02    40.00550     7.95575     9.75099
   240  C   4.0    0.19    3.02    37.77562     8.20141    11.50843
   241  O   6.0   -0.09    1.05    35.86700     9.41084    10.80923
   242  O   6.0   -0.09    1.06    37.83231     6.87860    13.45485
   243  H   1.0    0.10    1.01    41.63066     7.63449    10.82813
   244  H   1.0    0.07    1.00    39.58976     6.27389     8.54156
   245  H   1.0    0.06    0.98    40.38344     9.80768     8.65494
   246  C   4.0   -0.21    4.02    20.71140    21.97751    22.46884
   247  C   4.0    0.22    3.01    19.65315    19.93661    20.67360
   248  O   6.0   -0.12    1.18    17.51776    19.10513    20.97596
   249  O   6.0   -0.11    1.07    21.08934    19.33190    18.99175
   250  H   1.0    0.06    0.98    19.50197    22.26097    24.26408
   251  H   1.0    0.08    1.00    20.86257    23.75386    21.46729
   252  H   1.0    0.07    1.00    22.65781    21.35390    22.99796
   253  C   4.0   -0.23    4.01     2.30547    42.32986    33.16469
   254  C   4.0    0.19    3.01     2.87238    41.13933    30.53797
   255  O   6.0   -0.09    1.05     2.79679    42.49994    28.61045
   256  O   6.0   -0.11    1.10     3.42040    38.87166    30.53797
   257  H   1.0    0.08    1.00     0.45353    43.25583    33.25918
   258  H   1.0    0.07    0.99     2.26767    40.72359    34.54419
   259  H   1.0    0.08    1.00     3.98732    43.42590    33.67492
   260  C   4.0   -0.23    4.01    47.56440    13.22808    39.74094
   261  C   4.0    0.17    3.01    47.46992    10.33680    39.23071
   262  O   6.0   -0.09    1.05    49.26516     8.82502    39.72204
   263  O   6.0   -0.09    1.06    45.33453     9.61871    38.47482
   264  H   1.0    0.06    0.99    46.54395    14.43751    38.28585
   265  H   1.0    0.07    0.99    46.69513    13.75720    41.61177
   266  H   1.0    0.10    1.00    49.39744    14.02177    39.66535
   267  C   4.0   -0.23    4.02    47.67779    56.63509    49.69979
   268  C   4.0    0.17    3.01    45.99593    57.37208    47.48881
   269  O   6.0   -0.08    1.04    45.46681    55.97368    45.59909
   270  O   6.0   -0.09    1.06    45.25894    59.62841    47.63999
   271  H   1.0    0.09    1.00    49.30295    57.86341    49.69979
   272  H   1.0    0.07    0.99    46.54395    57.12642    51.43834
   273  H   1.0    0.07    1.00    48.35809    54.65087    49.68090
   274  C   4.0   -0.22    4.03    28.21361    36.56620     9.12738
   275  C   4.0    0.20    3.02    27.72228    39.24961     8.31479
   276  O   6.0   -0.11    1.06    27.68449    39.74094     6.08492
   277  O   6.0   -0.09    1.06    27.49551    40.89367    10.03444
   278  H   1.0    0.07    0.99    28.62935    35.35677     7.44552
   279  H   1.0    0.08    1.00    29.85767    36.67958    10.33680
   280  H   1.0    0.07    0.99    26.49396    35.90479    10.20452
   281  C   4.0   -0.25    4.04    20.01220    26.56955     6.51955
   282  C   4.0    0.21    3.01    19.61536    26.90970     9.37304
   283  O   6.0   -0.08    1.08    19.36969    29.19627    10.12893
   284  O   6.0   -0.13    1.06    19.80433    25.07666    10.63916
   285  H   1.0    0.09    1.00    18.42483    27.21205     5.42351
   286  H   1.0    0.08    1.00    21.80744    27.40103     5.93374
   287  H   1.0    0.08    1.00    20.46573    24.58533     6.21720
   288  C   4.0   -0.26    4.00    42.85898    34.26073     2.91018
   289  C   4.0    0.20    2.99    45.84475    33.73161     3.42040
   290  O   6.0   -0.10    1.05    47.03528    32.97572     1.58737
   291  O   6.0   -0.10    1.05    46.73292    33.82609     5.59359
   292  H   1.0    0.09    1.00    41.68735    32.65446     3.19364
   293  H   1.0    0.09    1.00    42.02751    35.62133     4.11960
   294  H   1.0    0.07    0.99    42.68891    34.56309     0.81258
   295  C   4.0   -0.24    4.03    53.02571    22.16649     0.51023
   296  C   4.0    0.20    3.01    50.47458    21.31611     1.54958
   297  O   6.0   -0.11    1.11    50.45568    19.97440     3.45820
   298  O   6.0   -0.10    1.06    48.64155    22.29877     0.51023
   299  H   1.0    0.09    1.00    54.25403    20.56022     0.51023
   300  H   1.0    0.07    1.00    52.55328    22.79009    -1.44942
   301  H   1.0    0.08    1.00    53.80050    23.77275     1.54958
   302  C   4.0   -0.22    4.02    24.37746    31.14268    34.29853
   303  C   4.0    0.21    3.02    26.19160    29.25296    35.39457
   304  O   6.0   -0.12    1.30    28.28920    29.95216    36.15046
   305  O   6.0   -0.11    1.16    25.49240    27.02308    35.62133
   306  H   1.0    0.08    1.00    23.65937    32.44659    35.71582
   307  H   1.0    0.06    0.99    25.20894    32.42770    32.78675
   308  H   1.0    0.07    1.00    22.75230    29.97105    33.58043
   309  C   4.0   -0.28    4.05    20.95706    55.80361    40.91257
   310  C   4.0    0.18    3.02    20.10668    57.82561    39.23071
   311  O   6.0   -0.09    1.05    20.67360    60.10084    39.62755
   312  O   6.0   -0.09    1.08    18.63270    57.12642    37.51106
   313  H   1.0    0.11    1.01    22.39325    54.78316    40.09998
   314  H   1.0    0.08    1.00    22.05310    56.23824    42.59442
   315  H   1.0    0.07    1.00    19.38859    54.55639    41.49838
   316  C   4.0   -0.29    4.06    55.91699    15.17450    56.55950
   317  C   4.0    0.20    3.02    58.13175    16.21385    57.83884
   318  O   6.0   -0.10    1.06    58.92543    18.29255    57.19634
   319  O   6.0   -0.09    1.06    59.09551    14.92883    59.55849
   320  H   1.0    0.08    1.00    54.46190    14.36192    57.80105
   321  H   1.0    0.12    1.01    56.52548    13.58713    55.65243
   322  H   1.0    0.08    1.00    55.21779    16.47841    55.14220
   323  C   4.0   -0.24    4.03    35.16780     7.23765    44.48415
   324  C   4.0    0.19    3.02    35.90479     9.58091    45.99593
   325  O   6.0   -0.10    1.20    38.04018     9.52422    47.07307
   326  O   6.0   -0.11    1.18    34.48750    11.45174    45.95814
   327  H   1.0    0.07    0.99    34.90324     7.46442    42.40545
   328  H   1.0    0.08    1.00    36.75517     5.97153    44.86209
   329  H   1.0    0.08    1.00    33.44815     6.61404    45.41011
   330  C   4.0   -0.26    4.03    15.15560    16.02488    42.48104
   331  C   4.0    0.18    3.02    15.72252    17.25320    39.92991
   332  O   6.0   -0.10    1.06    14.79655    19.33190    39.45748
   333  O   6.0   -0.09    1.12    17.32879    16.21385    38.41813
   334  H   1.0    0.08    1.00    16.79966    15.40127    43.53929
   335  H   1.0    0.08    1.00    14.21074    17.42327    43.65267
   336  H   1.0    0.09    1.00    13.75720    14.60758    42.17868
   337  C   4.0   -0.21    4.01    53.19579    40.34565    37.37878
   338  C   4.0    0.19    3.01    52.30761    42.61332    38.90946
   339  O   6.0   -0.10    1.06    52.17533    42.53773    41.25272
   340  O   6.0   -0.10    1.07    51.92967    44.54084    37.64334
   341  H   1.0    0.06    0.99    55.33118    40.15668    37.71893
   342  H   1.0    0.07    0.99    52.26982    38.53151    37.92680
   343  H   1.0    0.07    1.00    52.98792    40.78029    35.33788
   344  C   4.0   -0.23    4.04    34.29853    22.58223    40.72359
   345  C   4.0    0.22    3.01    35.96148    22.20428    38.38033
   346  O   6.0   -0.12    1.07    34.88434    21.48618    36.52840
   347  O   6.0   -0.11    1.12    38.26695    22.52553    38.58820
   348  H   1.0    0.08    1.00    33.88279    20.91927    41.87633
   349  H   1.0    0.08    1.00    35.31898    23.94283    41.89522
   350  H   1.0    0.07    0.99    32.37101    23.30032    40.19447
   351  C   4.0   -0.26    4.05     8.48487    20.46573    30.53797
   352  C   4.0    0.20    3.02     8.82502    19.33190    28.02464
   353  O   6.0   -0.11    1.15     7.50221    17.44217    27.55220
   354  O   6.0   -0.10    1.07    10.33680    20.25786    26.51286
   355  H   1.0    0.09    1.00     7.06758    21.90192    30.51907
   356  H   1.0    0.08    1.00     7.80457    19.21851    32.03085
   357  H   1.0    0.08    1.00    10.22342    21.33501    31.27496
   358  C   4.0   -0.23    4.02    36.83076     3.04246    38.64490
   359  C   4.0    0.17    3.01    35.82920     0.37795    39.06064
   360  O   6.0   -0.09    1.06    35.31898    -0.17763    41.32831
   361  O   6.0   -0.09    1.05    35.52685    -1.10360    37.20870
   362  H   1.0    0.08    1.00    37.62444     3.85504    40.36455
   363  H   1.0    0.08    1.00    38.17246     3.32592    37.13311
   364  H   1.0    0.06    0.99    35.05442     4.21409    38.36144
   365  C   4.0   -0.24    4.03    43.57708    44.04951    50.79583
   366  C   4.0    0.18    3.02    44.97548    42.34876    49.00059
   367  O   6.0   -0.10    1.06    47.18646    41.74405    49.52972
   368  O   6.0   -0.09    1.09    44.01172    41.81964    46.88410
   369  H   1.0    0.07    1.00    44.61643    45.84475    51.02260
   370  H   1.0    0.08    1.00    41.80074    44.57864    49.92656
   371  H   1.0    0.08    1.00    43.21803    43.27472    52.68556
   372  C   4.0   -0.26    4.04    13.03911    35.11111    54.78316
   373  C   4.0    0.18    3.01    10.48798    33.82609    55.12331
   374  O   6.0   -0.08    1.05    10.45018    31.55842    54.21624
   375  O   6.0   -0.10    1.05     8.86281    34.94103    56.33273
   376  H   1.0    0.08    1.00    14.13515    33.67492    53.80050
   377  H   1.0    0.08    1.00    12.52888    36.83076    53.74381
   378  H   1.0    0.09    1.00    14.02177    35.60244    56.46501
   379  C   4.0   -0.24    4.03    25.20894    30.61356     2.07870
   380  C   4.0    0.18    3.02    26.75852    28.81832     0.49133
   381  O   6.0   -0.09    1.06    26.70183    29.02619    -1.86516
   382  O   6.0   -0.09    1.05    28.04353    27.17426     1.62516
   383  H   1.0    0.08    1.00    26.05932    30.67025     3.94953
   384  H   1.0    0.08    1.00    25.30343    32.48439     1.19053
   385  H   1.0    0.08    1.00    23.22473    30.12223     2.47554
   386  C   4.0   -0.26    4.03    20.31455    10.37460    26.62624
   387  C   4.0    0.17    3.02    17.89570     9.01399    27.40103
   388  O   6.0   -0.09    1.05    17.53666     6.89750    26.36168
   389  O   6.0   -0.08    1.04    16.38392    10.07224    28.95060
   390  H   1.0    0.11    1.01    21.52398     8.84392    26.51286
   391  H   1.0    0.07    0.99    20.22007    11.50843    24.84990
   392  H   1.0    0.08    1.00    20.95706    11.88638    27.87346
   393  C   4.0   -0.27    4.05     5.34792     5.44241    17.65004
   394  C   4.0    0.20    3.01     6.78412     6.63294    19.80433
   395  O   6.0   -0.11    1.07     6.02823     6.00933    21.88303
   396  O   6.0   -0.09    1.05     8.56046     8.10692    19.33190
   397  H   1.0    0.09    1.00     3.38261     5.25344    18.16027
   398  H   1.0    0.10    1.00     5.44241     6.46286    15.96818
   399  H   1.0    0.07    1.00     6.04712     3.47710    17.47997
   400  C   4.0   -0.26    4.03    15.55244     6.82191     7.76677
   401  C   4.0    0.19    3.02    16.02488     9.03289     9.59981
   402  O   6.0   -0.12    1.31    14.11625     9.99665    10.58247
   403  O   6.0   -0.10    1.15    18.23586     9.92106     9.88327
   404  H   1.0    0.09    1.00    17.30989     5.91484     7.42662
   405  H   1.0    0.08    1.00    14.83435     7.52111     5.97153
   406  H   1.0    0.08    1.00    14.34302     5.31013     8.48487
   407  C   4.0   -0.25    4.02    29.97105    49.07618    54.68867
   408  C   4.0    0.17    3.01    27.19316    48.83052    55.44456
   409  O   6.0   -0.10    1.05    25.92704    47.14866    54.44300
   410  O   6.0   -0.07    1.04    26.43727    50.32340    57.27192
   411  H   1.0    0.08    1.00    30.42459    51.04150    54.38631
   412  H   1.0    0.09    1.00    30.97261    48.18801    56.18155
   413  H   1.0    0.07    0.99    30.63246    48.16911    52.87453
   414  C   4.0   -0.25    4.03    35.73472    41.08264    34.97883
   415  C   4.0    0.18    3.01    36.58509    40.83698    37.81342
   416  O   6.0   -0.10    1.06    37.43547    38.72048    38.30474
   417  O   6.0   -0.08    1.04    36.54730    42.82119    39.19292
   418  H   1.0    0.09    1.00    34.73316    42.78340    34.48750
   419  H   1.0    0.09    1.00    37.26540    40.81808    33.67492
   420  H   1.0    0.07    1.00    34.46860    39.53307    34.33632
   421  C   4.0   -0.24    4.03    11.52733    42.89678    14.07846
   422  C   4.0    0.19    3.02    10.80923    41.83853    11.47064
   423  O   6.0   -0.10    1.06    11.99976    39.94881    10.75254
   424  O   6.0   -0.10    1.06     9.20297    42.89678    10.12893
   425  H   1.0    0.08    1.00     9.92106    43.65267    15.15560
   426  H   1.0    0.08    1.00    12.28322    41.29051    15.09891
   427  H   1.0    0.07    1.00    13.03911    44.29518    13.70051
   428  C   4.0   -0.27    4.03     6.27389    55.21779    30.46238
   429  C   4.0    0.19    3.01     8.33369    56.84296    29.19627
   430  O   6.0   -0.11    1.12    10.58247    56.31383    29.51752
   431  O   6.0   -0.09    1.05     7.76677    58.79693    27.98684
   432  H   1.0    0.09    1.00     5.06447    56.44611    31.50173
   433  H   1.0    0.09    1.00     4.98888    54.19734    29.25296
   434  H   1.0    0.09    1.00     7.14316    53.91388    31.72850
   435  C   4.0   -0.27    4.04    28.51596    11.11159    40.72359
   436  C   4.0    0.20    3.02    28.21361    10.99821    37.94570
   437  O   6.0   -0.11    1.19    26.28609    11.84858    36.90635
   438  O   6.0   -0.10    1.09    29.95216    10.05334    36.71738
   439  H   1.0    0.12    1.01    29.21516    12.83124    41.23382
   440  H   1.0    0.07    0.99    26.79631    10.56357    41.81964
   441  H   1.0    0.07    1.00    30.04664     9.80768    41.36610
   442  C   4.0   -0.27    4.05    37.92680    50.22892    10.39349
   443  C   4.0    0.20    3.03    37.70003    47.84786     8.88171
   444  O   6.0   -0.11    1.20    39.51417    47.22425     7.54001
   445  O   6.0   -0.11    1.26    35.73472    46.56285     9.14627
   446  H   1.0    0.10    1.01    38.62600    51.58952     9.14627
   447  H   1.0    0.08    1.00    36.15046    50.72024    11.28166
   448  H   1.0    0.08    1.00    39.36299    50.03994    11.88638
   449  C   4.0   -0.25    4.04     3.19364    40.62911    52.62887
   450  C   4.0    0.20    3.01     0.88817    40.93146    54.17844
   451  O   6.0   -0.09    1.06     1.02045    41.83853    56.35163
   452  O   6.0   -0.10    1.07    -1.13762    40.21337    53.34696
   453  H   1.0    0.09    1.00     4.78101    39.70314    53.47924
   454  H   1.0    0.08    1.00     2.77790    39.58976    50.89032
   455  H   1.0    0.08    1.00     3.93063    42.40545    51.85408
   456  C   4.0   -0.23    4.05    32.84344     3.00466     5.95264
   457  C   4.0    0.22    3.02    31.04820     1.00155     6.78412
   458  O   6.0   -0.10    1.06    29.08288     1.54958     7.88016
   459  O   6.0   -0.11    1.08    31.53953    -1.02801     5.85815
   460  H   1.0    0.08    1.00    32.67336     4.47865     7.40773
   461  H   1.0    0.07    0.99    34.82765     2.38105     5.66918
   462  H   1.0    0.08    1.00    32.08755     3.81725     4.19519
   463  C   4.0   -0.22    4.04    47.07307    28.72383    20.73029
   464  C   4.0    0.23    3.02    45.93924    31.16158    21.56177
   465  O   6.0   -0.13    1.19    47.14866    33.08910    21.25942
   466  O   6.0   -0.12    1.08    43.87944    31.04820    22.52553
   467  H   1.0    0.08    1.00    45.42901    27.45772    20.61691
   468  H   1.0    0.08    1.00    47.94235    29.04509    18.87836
   469  H   1.0    0.06    0.99    48.32029    27.77897    22.22318
   470  C   4.0   -0.20    4.01    11.05490    20.67360    49.62420
   471  C   4.0    0.18    3.02    10.22342    18.44373    48.09353
   472  O   6.0   -0.10    1.10     8.14472    18.34924    47.01638
   473  O   6.0   -0.08    1.06    11.52733    16.42172    48.37698
   474  H   1.0    0.06    0.98     9.67540    21.67516    50.98481
   475  H   1.0    0.07    0.99    12.94462    20.29566    50.55017
   476  H   1.0    0.07    1.00    11.60292    22.26097    48.33919
   477  C   4.0   -0.29    4.05    20.20117    19.23741     2.83459
   478  C   4.0    0.20    3.01    19.97440    18.63270     0.03779
   479  O   6.0   -0.10    1.06    18.00909    19.21851    -1.03368
   480  O   6.0   -0.09    1.06    21.93972    17.93350    -1.05258
   481  H   1.0    0.11    1.01    18.40593    19.38859     3.59048
   482  H   1.0    0.10    1.00    20.97596    17.91460     4.10071
   483  H   1.0    0.08    1.00    21.39170    20.86257     3.30702
   484  C   4.0   -0.28    4.06    31.61512    12.79344     3.47710
   485  C   4.0    0.19    3.02    29.68759    11.48953     1.98421
   486  O   6.0   -0.10    1.07    28.70494    12.75565     0.28346
   487  O   6.0   -0.08    1.05    28.95060     9.27855     2.55113
   488  H   1.0    0.09    1.00    30.95371    14.60758     4.08181
   489  H   1.0    0.09    1.00    32.14424    11.69740     5.10226
   490  H   1.0    0.10    1.01    33.14579    13.15249     2.24877
   491  C   4.0   -0.23    4.05    24.79320    54.34852    33.59933
   492  C   4.0    0.21    3.02    25.51130    52.06195    35.07331
   493  O   6.0   -0.10    1.11    25.39792    50.00215    33.92058
   494  O   6.0   -0.12    1.11    25.77586    52.30761    37.34098
   495  H   1.0    0.07    1.00    22.99796    54.04616    32.54108
   496  H   1.0    0.08    1.00    24.32077    55.93589    34.86544
   497  H   1.0    0.08    1.00    26.34278    54.82095    32.31431
   498  C   4.0   -0.28    4.03     4.36527    34.73316    40.89367
   499  C   4.0    0.18    3.02     5.87705    37.00083    41.87633
   500  O   6.0   -0.09    1.05     5.29123    39.19292    41.21492
   501  O   6.0   -0.11    1.43     7.59670    36.49061    43.50149
   502  H   1.0    0.10    1.00     2.81569    34.43081    42.08420
   503  H   1.0    0.09    1.00     5.44241    33.03241    40.79918
   504  H   1.0    0.08    1.00     3.76055    35.22449    38.98505
   505  C   4.0   -0.25    4.03    38.81497     6.50066    26.30499
   506  C   4.0    0.20    3.02    37.32209     8.48487    27.81677
   507  O   6.0   -0.10    1.17    37.22760     8.14472    30.16003
   508  O   6.0   -0.11    1.19    36.43392    10.33680    26.68293
   509  H   1.0    0.09    1.01    40.53462     6.42507    27.38213
   510  H   1.0    0.07    0.99    38.07798     4.51645    26.19160
   511  H   1.0    0.09    1.00    39.17402     7.12427    24.39636
   512  C   4.0   -0.24    4.04    47.77227    56.44611    29.95216
   513  C   4.0    0.19    3.01    46.82741    59.06149    29.19627
   514  O   6.0   -0.09    1.06    45.71247    60.10084    31.01040
   515  O   6.0   -0.09    1.04    47.35653    60.06305    27.13646
   516  H   1.0    0.08    1.00    47.45102    56.10596    31.95527
   517  H   1.0    0.08    1.00    46.86520    55.08551    28.70494
   518  H   1.0    0.07    1.00    49.86987    56.33273    30.00885
   519  C   4.0   -0.23    4.02    41.91412    21.05155     1.83303
   520  C   4.0    0.17    3.01    39.68424    20.54132     0.11338
   521  O   6.0   -0.08    1.05    38.43703    22.44994    -0.67463
   522  O   6.0   -0.09    1.05    39.32520    18.34924    -0.67463
   523  H   1.0    0.08    1.00    41.38500    21.39170     3.79835
   524  H   1.0    0.07    1.00    42.95347    19.23741     1.81414
   525  H   1.0    0.07    1.00    43.16134    22.54443     1.07714
   526  C   4.0   -0.28    4.03    53.44145    31.42614    23.18694
   527  C   4.0    0.19    3.01    53.91388    28.93170    24.64203
   528  O   6.0   -0.10    1.05    55.21779    27.30654    23.62157
   529  O   6.0   -0.09    1.05    53.06350    28.70494    26.85301
   530  H   1.0    0.09    1.01    54.87764    32.65446    23.86724
   531  H   1.0    0.10    1.00    53.42255    31.04820    21.24052
   532  H   1.0    0.09    1.00    51.68400    32.23872    23.81055
   533  C   4.0   -0.22    4.02     5.44241    46.60064    17.89570
   534  C   4.0    0.16    3.02     7.86126    47.99904    18.14137
   535  O   6.0   -0.08    1.05     8.99510    47.71558    20.29566
   536  O   6.0   -0.08    1.05     8.80612    49.17067    16.27054
   537  H   1.0    0.08    1.00     4.76211    45.97703    19.74764
   538  H   1.0    0.07    0.99     3.91173    47.73448    16.93194
   539  H   1.0    0.07    1.00     5.68808    45.03217    16.53510
   540  C   4.0   -0.26    4.04    47.22425    50.64466    54.06506
   541  C   4.0    0.17    3.02    47.24315    50.03994    56.81839
   542  O   6.0   -0.09    1.06    45.78806    48.26360    57.42310
   543  O   6.0   -0.08    1.04    48.13132    51.58952    58.44355
   544  H   1.0    0.10    1.01    47.14866    48.98170    52.98792
   545  H   1.0    0.08    1.00    45.52350    51.77849    53.85719
   546  H   1.0    0.07    0.99    48.67934    52.04305    53.46035
   547  C   4.0   -0.28    4.04    38.98505    48.79272    46.73292
   548  C   4.0    0.19    3.02    36.26384    48.43368    47.45102
   549  O   6.0   -0.08    1.05    34.50640    48.47147    45.80696
   550  O   6.0   -0.11    1.07    35.79141    48.15022    49.68090
   551  H   1.0    0.11    1.01    40.17557    48.37698    48.22581
   552  H   1.0    0.09    1.00    39.45748    47.67779    45.10776
   553  H   1.0    0.07    1.00    39.38189    50.79583    46.22270
   554  C   4.0   -0.20    4.02    52.89343    27.04198    47.26205
   555  C   4.0    0.20    3.01    54.04616    28.02464    49.66200
   556  O   6.0   -0.10    1.06    53.98947    26.62624    51.53283
   557  O   6.0   -0.10    1.06    54.70757    30.27341    49.66200
   558  H   1.0    0.06    0.99    51.74070    28.49707    46.16600
   559  H   1.0    0.07    1.00    54.59418    26.58844    46.07152
   560  H   1.0    0.07    0.99    51.58952    25.36012    47.33764
   561  C   4.0   -0.26    4.04    14.11625    23.09245     7.86126
   562  C   4.0    0.18    3.02    11.94307    22.03420     6.42507
   563  O   6.0   -0.09    1.06    10.29901    23.54599     5.66918
   564  O   6.0   -0.09    1.07    11.81079    19.70984     5.93374
   565  H   1.0    0.07    1.00    15.91149    23.03576     6.74632
   566  H   1.0    0.08    1.00    13.96507    25.07666     8.46597
   567  H   1.0    0.10    1.01    14.36192    22.14759     9.58091
   568  C   4.0   -0.28    4.03    20.06889     1.98421    56.27604
   569  C   4.0    0.19    3.01    19.99330    -0.59337    57.63097
   570  O   6.0   -0.10    1.11    18.59490    -2.29413    56.74280
   571  O   6.0   -0.09    1.05    21.24052    -0.83904    59.59629
   572  H   1.0    0.09    1.00    18.33034     3.00466    56.01148
   573  H   1.0    0.11    1.00    21.18383     3.25033    57.25303
   574  H   1.0    0.08    1.00    20.82478     1.75745    54.38631
   575  C   4.0   -0.22    4.01    41.13933    39.89211    15.81701
   576  C   4.0    0.20    3.01    38.32364    39.23071    16.21385
   577  O   6.0   -0.10    1.06    37.22760    37.85121    14.68317
   578  O   6.0   -0.11    1.22    37.24650    40.00550    18.16027
   579  H   1.0    0.09    1.00    42.17868    38.21026    16.27054
   580  H   1.0    0.07    0.99    41.72515    40.42124    13.83279
   581  H   1.0    0.06    0.99    41.74405    41.30941    17.30989
   582  C   4.0   -0.27    4.04    12.39660    24.24518    14.32412
   583  C   4.0    0.19    3.02    10.52577    26.11601    15.51465
   584  O   6.0   -0.09    1.05     8.50377    26.58844    14.39971
   585  O   6.0   -0.11    1.16    11.24387    27.06088    17.53666
   586  H   1.0    0.10    1.00    11.37615    22.75230    13.47375
   587  H   1.0    0.08    1.00    13.60603    25.09556    12.88793
   588  H   1.0    0.08    1.00    13.60603    23.54599    15.81701
   589  C   4.0   -0.22    4.00    53.42255    47.81007    51.02260
   590  C   4.0    0.19    3.01    54.55639    48.96280    48.71713
   591  O   6.0   -0.09    1.05    56.84674    48.66044    48.20691
   592  O   6.0   -0.10    1.06    53.21468    50.30450    47.33764
   593  H   1.0    0.10    1.00    54.68867    46.75182    52.13754
   594  H   1.0    0.05    0.97    52.74225    49.39744    52.43990
   595  H   1.0    0.07    0.99    51.68400    46.71403    50.49348
   596  C   4.0   -0.25    4.04    40.72359    37.17091    53.23358
   597  C   4.0    0.19    3.02    39.49527    38.81497    55.10441
   598  O   6.0   -0.09    1.06    37.13311    38.87166    55.08551
   599  O   6.0   -0.09    1.06    40.79918    39.96770    56.68611
   600  H   1.0    0.10    1.01    42.12199    38.36144    52.43990
   601  H   1.0    0.06    0.99    41.95192    35.54575    53.97057
   602  H   1.0    0.08    1.00    39.49527    36.50951    51.74070
   603  C   4.0   -0.25    4.01    30.06554    58.29805    28.83722
   604  C   4.0    0.17    3.00    27.09867    58.16576    28.55376
   605  O   6.0   -0.08    1.04    25.85145    59.43944    30.17892
   606  O   6.0   -0.09    1.04    26.24829    57.20200    26.56955
   607  H   1.0    0.08    1.00    30.78364    57.35318    27.15536
   608  H   1.0    0.09    1.00    30.68915    60.23312    28.91281
   609  H   1.0    0.08    1.00    30.72694    57.03193    30.34900
   610  C   4.0   -0.25    4.05     6.95419     5.06447    35.18670
   611  C   4.0    0.22    3.01     7.55890     6.93529    37.26540
   612  O   6.0   -0.11    1.08     8.14472     5.85815    39.19292
   613  O   6.0   -0.11    1.11     7.33214     9.20297    36.94414
   614  H   1.0    0.08    1.00     8.59825     4.08181    34.37412
   615  H   1.0    0.09    1.00     5.93374     3.47710    35.94259
   616  H   1.0    0.08    1.00     6.08492     5.82036    33.48594
   617  C   4.0   -0.23    4.04    27.76007    26.30499    18.78388
   618  C   4.0    0.18    3.02    28.45927    28.89391    17.93350
   619  O   6.0   -0.12    1.28    27.68449    30.61356    19.33190
   620  O   6.0   -0.08    1.05    29.95216    29.25296    16.04377
   621  H   1.0    0.09    1.00    25.90814    26.26719    19.63425
   622  H   1.0    0.07    1.00    27.64669    25.11446    17.06423
   623  H   1.0    0.07    1.00    29.27185    25.53020    20.04999
   624  C   4.0   -0.22    4.02    37.09532    45.59909    30.33010
   625  C   4.0    0.19    3.01    37.24650    46.67623    27.66559
   626  O   6.0   -0.10    1.06    35.81031    48.47147    27.19316
   627  O   6.0   -0.09    1.05    38.79607    45.71247    26.15381
   628  H   1.0    0.08    1.00    38.58820    46.24159    31.59622
   629  H   1.0    0.08    1.00    35.24339    46.10931    31.12379
   630  H   1.0    0.06    0.99    37.39768    43.48259    30.10333
   631  C   4.0   -0.24    4.06    36.94414    56.82406     2.26767
   632  C   4.0    0.22    3.02    37.79452    57.86341    -0.22110
   633  O   6.0   -0.11    1.07    37.30319    60.08195    -0.56125
   634  O   6.0   -0.11    1.07    39.04174    56.50281    -1.56280
   635  H   1.0    0.08    1.00    36.30164    54.85874     2.24877
   636  H   1.0    0.08    1.00    35.33788    58.01459     2.81569
   637  H   1.0    0.08    1.00    38.15357    57.20200     3.89284
   638  C   4.0   -0.27    4.06    28.61045    53.53594    13.77610
   639  C   4.0    0.20    3.02    30.27341    51.83518    15.26899
   640  O   6.0   -0.10    1.06    32.20093    52.76115    16.19495
   641  O   6.0   -0.11    1.30    29.32855    49.71869    15.77921
   642  H   1.0    0.10    1.01    26.77742    53.34696    14.49420
   643  H   1.0    0.08    1.00    29.29075    55.48235    13.75720
   644  H   1.0    0.08    1.00    28.45927    53.10130    11.77299
   645  C   4.0   -0.25    4.03    28.08133    36.79296    46.16600
   646  C   4.0    0.18    3.02    27.83566    39.62755    46.52505
   647  O   6.0   -0.08    1.05    26.89080    40.95036    44.74871
   648  O   6.0   -0.10    1.06    28.64825    40.57242    48.49037
   649  H   1.0    0.09    1.00    29.46083    35.99928    47.43212
   650  H   1.0    0.06    0.99    26.09712    35.98038    46.50616
   651  H   1.0    0.10    1.00    28.72383    36.28274    44.35187
   652  C   4.0   -0.20    3.99     1.58737    50.73914    12.47219
   653  C   4.0    0.19    3.01     1.37950    50.94701     9.54312
   654  O   6.0   -0.10    1.05     2.38105    52.68556     8.37149
   655  O   6.0   -0.09    1.06     0.22677    49.22736     8.40928
   656  H   1.0    0.07    1.00     1.85193    48.71713    12.90683
   657  H   1.0    0.07    0.99     3.30702    51.79739    13.15249
   658  H   1.0    0.05    0.98    -0.15496    51.62731    13.47375
   659  C   4.0   -0.24    4.04    13.09580     6.74632    54.23513
   660  C   4.0    0.18    3.01    12.01866     8.03134    56.50281
   661  O   6.0   -0.08    1.05     9.65650     8.44707    56.46501
   662  O   6.0   -0.10    1.05    13.49264     8.57936    58.23568
   663  H   1.0    0.09    1.00    11.82968     5.36682    53.46035
   664  H   1.0    0.07    1.00    14.89104     5.76366    54.66977
   665  H   1.0    0.08    1.00    13.49264     8.01244    52.62887
   666  C   4.0   -0.24    4.03    54.53749    12.03755     7.01088
   667  C   4.0    0.18    3.01    54.04616     9.52422     8.18251
   668  O   6.0   -0.10    1.06    53.91388     7.71008     6.74632
   669  O   6.0   -0.07    1.05    53.72491     9.27855    10.60136
   670  H   1.0    0.09    1.00    53.08240    12.32101     5.61249
   671  H   1.0    0.06    0.99    54.27293    13.68162     8.35259
   672  H   1.0    0.08    1.00    56.43100    12.03755     6.21720
   673  C   4.0   -0.24    4.02    52.28872    16.78077    45.73137
   674  C   4.0    0.19    3.01    49.98325    18.33034    46.48726
   675  O   6.0   -0.11    1.13    50.32340    20.44683    47.37543
   676  O   6.0   -0.09    1.06    47.81007    17.38548    46.27939
   677  H   1.0    0.08    1.00    52.91233    15.70362    47.39433
   678  H   1.0    0.08    1.00    51.87298    15.47686    44.18179
   679  H   1.0    0.08    1.00    53.80050    17.93350    44.91879
   680  C   4.0   -0.25    4.02    18.61380    46.16600    28.66714
   681  C   4.0    0.19    3.01    16.42172    44.27628    29.04509
   682  O   6.0   -0.09    1.07    15.55244    43.33142    27.04198
   683  O   6.0   -0.10    1.05    15.64693    43.55818    31.12379
   684  H   1.0    0.08    1.00    19.99330    46.24159    30.17892
   685  H   1.0    0.10    1.01    19.63425    45.50460    27.07977
   686  H   1.0    0.07    1.00    17.68783    47.98014    28.11912
   687  C   4.0   -0.20    3.98    11.50843    51.11709    53.83829
   688  C   4.0    0.18    3.01    10.46908    49.60531    56.08707
   689  O   6.0   -0.08    1.04     9.82657    47.31874    55.76581
   690  O   6.0   -0.09    1.05    10.50688    50.79583    58.12230
   691  H   1.0    0.05    0.97     9.84547    51.21157    52.36431
   692  H   1.0    0.09    1.00    11.82968    53.04461    54.29183
   693  H   1.0    0.05    0.97    13.36036    50.19112    53.00681
   694  C   4.0   -0.31    4.06    20.78699    32.46549    51.11709
   695  C   4.0    0.20    3.03    20.39014    31.35055    48.64155
   696  O   6.0   -0.10    1.17    18.38703    30.12223    48.35809
   697  O   6.0   -0.11    1.20    22.10979    31.53953    47.03528
   698  H   1.0    0.12    1.01    21.92082    34.01507    51.00370
   699  H   1.0    0.07    1.00    18.99175    33.25918    51.87298
   700  H   1.0    0.11    1.01    21.33501    31.19938    52.51548
   701  C   4.0   -0.25    4.04    55.93589    32.06865     9.46753
   702  C   4.0    0.21    3.01    56.52548    29.59311     8.27700
   703  O   6.0   -0.10    1.06    55.70912    27.62779     9.16517
   704  O   6.0   -0.10    1.07    57.96167    29.64980     6.44397
   705  H   1.0    0.10    1.01    54.17844    31.97416    10.37460
   706  H   1.0    0.06    0.99    57.43255    32.37101    10.97931
   707  H   1.0    0.08    1.00    55.84140    33.69381     8.18251
   708  C   4.0   -0.23    4.04    30.87812    39.53307    27.74118
   709  C   4.0    0.19    3.03    28.19471    39.92991    27.66559
   710  O   6.0   -0.09    1.07    26.70183    38.53151    28.85612
   711  O   6.0   -0.10    1.10    27.30654    41.63066    26.26719
   712  H   1.0    0.07    1.00    31.76629    41.29051    28.45927
   713  H   1.0    0.07    1.00    31.40725    37.73783    28.66714
   714  H   1.0    0.07    1.00    31.25607    39.30630    25.68138
   715  C   4.0   -0.25    4.02    24.86879     9.27855    20.08779
   716  C   4.0    0.20    3.01    27.79787     9.27855    19.84212
   717  O   6.0   -0.11    1.06    29.06399    10.80923    21.01375
   718  O   6.0   -0.10    1.06    28.70494     7.71008    18.34924
   719  H   1.0    0.07    1.00    24.11290     8.23921    18.44373
   720  H   1.0    0.08    1.00    24.26408     8.08803    21.65626
   721  H   1.0    0.09    1.00    24.11290    11.13049    20.42794
   722  C   4.0   -0.27    4.04    51.40055    41.64956    30.06554
   723  C   4.0    0.18    3.02    49.26516    43.02906    28.78053
   724  O   6.0   -0.08    1.05    47.03528    43.01016    29.74429
   725  O   6.0   -0.11    1.06    49.79428    44.12510    26.81521
   726  H   1.0    0.09    1.00    51.13598    41.10154    32.01196
   727  H   1.0    0.09    1.00    51.74070    39.92991    29.06399
   728  H   1.0    0.09    1.00    53.10130    42.74560    30.00885
   729  C   4.0   -0.23    4.03     9.24076    44.42746    38.00239
   730  C   4.0    0.20    3.02     9.44863    47.26205    38.07798
   731  O   6.0   -0.10    1.06     9.22186    48.56596    36.15046
   732  O   6.0   -0.11    1.09     9.75099    48.26360    40.15668
   733  H   1.0    0.07    0.99     8.73053    43.65267    36.09377
   734  H   1.0    0.09    1.00    10.99821    43.63377    38.58820
   735  H   1.0    0.07    1.00     7.78567    43.80385    39.40079
   736  C   4.0   -0.27    4.04    44.88099    18.63270    32.69226
   737  C   4.0    0.21    3.01    45.80696    20.84368    31.08599
   738  O   6.0   -0.11    1.07    47.96124    21.65626    31.27496
   739  O   6.0   -0.10    1.07    44.38966    21.61846    29.42303
   740  H   1.0    0.09    1.00    44.33297    19.42638    34.46860
   741  H   1.0    0.09    1.00    43.12355    17.70673    32.35211
   742  H   1.0    0.09    1.00    46.26049    17.15871    32.91903
   743  C   4.0   -0.26    4.03    55.76581    51.43834    21.92082
   744  C   4.0    0.19    3.01    56.09085    52.34541    24.60423
   745  O   6.0   -0.08    1.06    58.32072    52.21313    25.45461
   746  O   6.0   -0.10    1.05    54.42411    53.34696    25.88925
   747  H   1.0    0.08    1.00    54.02726    50.38009    21.67516
   748  H   1.0    0.08    1.00    55.74692    53.17689    20.80588
   749  H   1.0    0.09    1.00    57.35696    50.36120    21.33501
   750  C   4.0   -0.23    4.01    53.53594    46.84631    14.62648
   751  C   4.0    0.20    3.01    51.34385    44.97548    15.21229
   752  O   6.0   -0.10    1.07    52.04305    42.84009    15.85480
   753  O   6.0   -0.11    1.22    49.07618    45.50460    14.92883
   754  H   1.0    0.08    1.00    53.06350    48.73603    15.25009
   755  H   1.0    0.07    0.99    55.44456    46.26049    15.34457
   756  H   1.0    0.07    0.99    53.78160    47.20535    12.56668
   757  C   4.0   -0.13    4.04    12.26432    54.80205    40.57242
   758  N   5.0   -0.25    4.00    11.39505    56.14376    38.15357
   759  H   1.0    0.05    0.97    11.62181    52.70446    40.13778
   760  H   1.0    0.05    0.97    14.47530    55.02882    40.72359
   761  H   1.0    0.09    1.00    11.24387    55.55794    42.17868
   762  C   4.0   -0.23    4.12    12.41550    54.89654    35.77251
   763  H   1.0    0.10    1.00    11.62181    53.06350    35.62133
   764  H   1.0    0.12    1.00    12.07535    55.63353    34.03396
   765  H   1.0    0.08    1.00    14.49420    55.08551    35.81031
   766  C   4.0   -0.18    4.10     8.50377    55.70912    37.96459
   767  H   1.0    0.07    0.99     7.33214    56.37053    39.57086
   768  H   1.0    0.09    1.00     8.06913    56.59729    36.20715
   769  H   1.0    0.07    0.99     7.89905    53.66822    37.70003
   770  C   4.0   -0.09    4.11    12.09425    58.87252    38.22916
   771  H   1.0    0.06    0.99    14.22964    59.34495    38.00239
   772  H   1.0    0.11    1.01    11.11159    59.68510    36.71738
   773  C   4.0   -0.10    4.03    11.77299    60.51658    40.68580
   774  H   1.0    0.10    1.01    13.13360    59.70400    41.91412
   775  H   1.0    0.06    0.99     9.69429    60.49769    41.25272
   776  O   6.0   -0.14    2.00    12.49109    62.95433    40.06219
   777  H   1.0    0.09    1.00    10.71475    63.76691    40.21337
   778  C   4.0   -0.17    4.13     2.47554    22.96017    53.08240
   779  N   5.0   -0.25    3.99     2.28657    21.78854    50.55017
   780  H   1.0    0.08    1.00     1.19053    24.58533    53.36586
   781  H   1.0    0.09    1.00     4.38416    23.58378    53.34696
   782  H   1.0    0.08    1.00     1.88973    21.76964    54.68867
   783  C   4.0   -0.17    4.15     3.66607    19.27520    50.83363
   784  H   1.0    0.09    1.00     5.59359    19.76653    51.26827
   785  H   1.0    0.07    0.99     3.85504    18.10357    49.07618
   786  H   1.0    0.07    0.99     2.94797    18.00909    52.36431
   787  C   4.0   -0.15    4.10    -0.45731    20.88147    50.13443
   788  H   1.0    0.07    0.99    -1.64784    22.60112    49.79428
   789  H   1.0    0.08    1.00    -0.47621    19.72874    48.39588
   790  H   1.0    0.06    0.99    -1.30769    19.70984    51.74070
   791  C   4.0   -0.11    4.09     3.21253    23.52709    48.39588
   792  H   1.0    0.09    1.01     2.51334    25.41681    48.56596
   793  H   1.0    0.07    1.00     5.29123    23.81055    48.73603
   794  C   4.0   -0.09    4.03     3.19364    23.05466    45.61798
   795  H   1.0    0.06    0.99     1.19053    22.35546    45.20224
   796  H   1.0    0.08    1.00     4.19519    21.25942    45.33453
   797  O   6.0   -0.14    2.01     4.30858    25.09556    44.33297
   798  H   1.0    0.10    1.06     3.09915    25.07666    42.80229
   799  C   4.0   -0.10    4.11    51.53283    21.18383    38.96615
   800  N   5.0   -0.26    4.00    49.34074    22.75230    39.34409
   801  H   1.0    0.05    0.97    53.44145    22.33656    39.04174
   802  H   1.0    0.06    0.98    51.36275    19.97440    37.15201
   803  H   1.0    0.08    1.00    51.62731    20.01220    40.70470
   804  C   4.0   -0.20    4.10    49.77538    24.28298    41.74405
   805  H   1.0    0.10    1.00    51.49503    25.30343    41.81964
   806  H   1.0    0.08    1.00    49.62420    23.01686    43.38811
   807  H   1.0    0.08    1.00    48.22581    25.60579    42.02751
   808  C   4.0   -0.23    4.14    48.94390    24.28298    36.88745
   809  H   1.0    0.12    1.01    47.33764    25.36012    36.67958
   810  H   1.0    0.08    1.00    50.22892    25.87035    36.66068
   811  H   1.0    0.09    1.00    48.58485    23.11135    35.24339
   812  C   4.0   -0.13    4.13    46.80851    21.25942    39.47638
   813  H   1.0    0.07    1.00    47.18646    19.76653    40.95036
   814  H   1.0    0.11    1.01    46.44946    20.08779    37.94570
   815  C   4.0   -0.08    3.97    44.27628    22.43105    40.09998
   816  H   1.0    0.06    0.99    44.57864    23.16804    42.14089
   817  H   1.0    0.06    0.99    43.59598    24.09401    38.90946
   818  O   6.0   -0.10    1.93    42.34876    20.39014    40.47793
   819  H   1.0    0.07    0.99    40.62911    21.25942    39.72204
   820  C   4.0   -0.22    4.08    12.33991    39.55196     4.36527
   821  N   5.0   -0.23    3.96    11.11159    41.76294     2.77790
   822  H   1.0    0.06    0.98    14.47530    40.08109     4.36527
   823  H   1.0    0.07    0.99    11.96197    37.66224     3.51489
   824  H   1.0    0.15    1.01    11.90527    39.47638     6.17940
   825  C   4.0   -0.19    4.09    12.15094    44.10620     4.21409
   826  H   1.0    0.08    1.00    11.33836    45.86365     3.51489
   827  H   1.0    0.09    1.00    14.17294    44.33297     4.42196
   828  H   1.0    0.08    1.00    11.65961    44.23848     6.21720
   829  C   4.0   -0.17    4.08    11.77299    41.30941     0.11338
   830  H   1.0    0.08    1.00    11.09269    42.95347    -0.97699
   831  H   1.0    0.09    1.00    13.75720    40.93146    -0.12661
   832  H   1.0    0.08    1.00    10.99821    39.49527    -0.52345
   833  C   4.0   -0.10    4.08     8.10692    41.76294     3.28812
   834  H   1.0    0.08    1.00     7.86126    42.10309     5.32903
   835  H   1.0    0.07    1.00     7.48331    39.81653     2.68341
   836  C   4.0   -0.07    3.99     6.38727    43.52039     1.87083
   837  H   1.0    0.05    0.96     6.06602    43.29362    -0.35338
   838  H   1.0    0.08    1.00     6.99199    45.44791     2.34326
   839  O   6.0   -0.13    2.00     4.08181    43.38811     3.13695
   840  H   1.0    0.08    0.97     2.81569    42.99127     1.62516
   841  C   4.0   -0.19    4.06    36.22605    41.80074    49.00059
   842  N   5.0   -0.24    3.98    35.98038    40.23227    46.54395
   843  H   1.0    0.07    0.99    34.20404    42.06530    49.58641
   844  H   1.0    0.07    1.00    36.81186    43.78495    48.58485
   845  H   1.0    0.11    1.00    37.66224    41.42279    50.26671
   846  C   4.0   -0.25    4.11    34.03396    41.17713    44.61643
   847  H   1.0    0.10    1.00    34.50640    42.89678    43.70936
   848  H   1.0    0.09    1.00    33.71271    39.70314    43.23693
   849  H   1.0    0.13    1.01    32.31431    41.46059    45.41011
   850  C   4.0   -0.20    4.14    38.38033    40.02440    45.14555
   851  H   1.0    0.08    1.00    38.81497    41.95192    44.55974
   852  H   1.0    0.07    1.00    38.13467    39.13622    43.25583
   853  H   1.0    0.12    1.01    39.87322    39.49527    46.24159
   854  C   4.0   -0.14    4.07    35.16780    37.41657    47.29984
   855  H   1.0    0.09    1.00    33.39146    37.64334    48.28250
   856  H   1.0    0.10    1.01    36.56620    37.11422    48.69824
   857  C   4.0   -0.15    3.99    34.90324    35.09221    45.25894
   858  H   1.0    0.11    1.01    33.52374    35.41346    43.91723
   859  H   1.0    0.09    1.00    36.62289    35.11111    44.18179
   860  O   6.0   -0.13    1.99    34.54419    32.76785    46.46836
   861  H   1.0    0.09    1.10    36.26384    31.76629    46.39277
   862  C   4.0   -0.17    4.19    38.02129    11.60292    17.91460
   863  N   5.0   -0.27    4.01    35.39457    11.13049    18.78388
   864  H   1.0    0.09    1.00    39.11733    11.98086    19.59646
   865  H   1.0    0.09    1.00    38.92835     9.97775    17.10202
   866  H   1.0    0.07    0.99    38.11577    13.28477    16.59179
   867  C   4.0   -0.13    4.19    34.86544    13.47375    20.20117
   868  H   1.0    0.06    0.99    32.95682    13.05801    21.14603
   869  H   1.0    0.07    0.99    34.97883    15.23119    19.01064
   870  H   1.0    0.08    1.00    36.26384    14.00287    21.67516
   871  C   4.0   -0.21    4.17    33.75051    11.20607    16.49731
   872  H   1.0    0.08    1.00    31.70960    11.22497    16.87525
   873  H   1.0    0.09    1.00    34.05286     9.78878    15.06112
   874  H   1.0    0.12    1.01    34.10955    12.81234    15.45796
   875  C   4.0   -0.16    4.10    34.95993     8.69274    20.33345
   876  H   1.0    0.10    1.01    33.08910     8.48487    21.03265
   877  H   1.0    0.12    1.02    36.24494     8.82502    21.76964
   878  C   4.0   -0.14    4.01    35.31898     5.83925    19.50197
   879  H   1.0    0.10    1.01    34.03396     5.65028    17.97129
   880  H   1.0    0.09    1.00    37.11422     5.38572    18.70829
   881  O   6.0   -0.10    1.87    34.80875     4.17629    21.54288
   882  H   1.0    0.05    0.86    36.28274     2.60782    21.63736
   883  C   4.0   -0.17    4.09     0.32125    56.38942    49.20846
   884  N   5.0   -0.25    4.00     1.30391    57.03193    46.61954
   885  H   1.0    0.08    1.00     1.43619    57.14531    50.79583
   886  H   1.0    0.08    1.00    -1.59115    57.16421    49.41633
   887  H   1.0    0.09    1.00     0.24566    54.34852    49.32185
   888  C   4.0   -0.13    4.08     3.93063    55.93589    46.35498
   889  H   1.0    0.08    1.00     4.38416    56.31383    44.37077
   890  H   1.0    0.07    0.99     4.32747    53.83829    46.37387
   891  H   1.0    0.05    0.97     5.63138    56.84296    47.46992
   892  C   4.0   -0.17    4.09    -0.36283    55.84140    44.57864
   893  H   1.0    0.09    1.01    -2.00689    56.95634    45.06996
   894  H   1.0    0.08    1.00     0.09449    56.35163    42.63222
   895  H   1.0    0.06    0.99    -1.06203    53.85719    45.08886
   896  C   4.0   -0.14    4.11     1.43619    59.91187    46.01483
   897  H   1.0    0.12    1.02    -0.40062    60.49769    46.20380
   898  H   1.0    0.08    1.00     1.98421    60.04415    44.01172
   899  C   4.0   -0.09    4.01     2.60782    61.83939    47.84786
   900  H   1.0    0.09    1.01     4.51645    61.32917    48.20691
   901  H   1.0    0.07    0.99     1.73855    61.78270    49.79428
   902  O   6.0   -0.16    2.00     2.43775    64.22045    46.99748
   903  H   1.0    0.09    0.98     1.32281    65.59995    47.82896
   904  C   4.0   -0.14    4.11    11.73520    32.12534    47.88566
   905  N   5.0   -0.26    4.01     9.54312    30.46238    47.16756
   906  H   1.0    0.07    1.00    13.62492    31.40725    47.33764
   907  H   1.0    0.08    1.00    11.67851    33.97727    46.94079
   908  H   1.0    0.06    0.98    11.90527    32.78675    49.96435
   909  C   4.0   -0.13    4.10     9.44863    30.38679    44.35187
   910  H   1.0    0.06    0.99    11.43284    29.85767    43.63377
   911  H   1.0    0.08    1.00     9.24076    32.31431    43.65267
   912  H   1.0    0.06    0.98     7.89905    28.95060    43.70936
   913  C   4.0   -0.16    4.08     9.82657    27.79787    48.26360
   914  H   1.0    0.07    0.99     8.23921    26.53175    47.60220
   915  H   1.0    0.10    1.00    11.58402    26.94749    47.82896
   916  H   1.0    0.06    0.99     9.76988    28.30809    50.36120
   917  C   4.0   -0.10    4.13     7.12427    31.65291    48.15022
   918  H   1.0    0.10    1.01     6.84081    33.58043    47.77227
   919  H   1.0    0.06    0.99     7.01088    31.63401    50.32340
   920  C   4.0   -0.09    4.01     4.42196    30.67025    47.62109
   921  H   1.0    0.07    1.00     4.15740    30.76474    45.50460
   922  H   1.0    0.07    0.99     4.17629    28.64825    48.20691
   923  O   6.0   -0.15    2.00     2.57003    32.52218    48.11242
   924  H   1.0    0.10    1.00     1.09604    31.55842    48.84942
   925  C   4.0   -0.14    4.08    10.75254    37.51106    37.88901
   926  N   5.0   -0.24    3.97    10.29901    37.32209    35.09221
   927  H   1.0    0.08    1.00    12.77455    37.28429    38.24805
   928  H   1.0    0.06    0.99    10.11003    39.02284    39.28740
   929  H   1.0    0.06    0.99    10.09114    35.77251    38.96615
   930  C   4.0   -0.17    4.05     7.35103    37.70003    34.56309
   931  H   1.0    0.08    1.00     6.68963    37.58665    32.59777
   932  H   1.0    0.08    1.00     7.14316    39.57086    35.39457
   933  H   1.0    0.06    0.99     5.93374    36.56620    35.71582
   934  C   4.0   -0.20    4.13    11.81079    39.17402    33.73161
   935  H   1.0    0.08    1.00    11.58402    39.24961    31.67181
   936  H   1.0    0.11    1.00    13.77610    39.11733    33.71271
   937  H   1.0    0.09    1.00    11.50843    41.13933    34.05286
   938  C   4.0   -0.14    4.07    10.97931    34.60088    34.05286
   939  H   1.0    0.11    1.01     9.92106    33.25918    34.99772
   940  H   1.0    0.08    1.00    12.98242    34.24183    34.56309
   941  C   4.0   -0.08    4.00    10.71475    33.78830    31.06709
   942  H   1.0    0.07    1.00    10.94151    31.70960    30.89702
   943  H   1.0    0.08    1.00     8.69274    34.18514    30.85922
   944  O   6.0   -0.18    2.01    12.33991    34.73316    29.40414
   945  H   1.0    0.11    1.03    13.36036    33.33477    28.64825
   946  C   4.0   -0.16    4.06    12.39660     2.04090     2.92908
   947  N   5.0   -0.24    3.99    10.69585     0.26456     1.36060
   948  H   1.0    0.09    1.00    13.66272     0.92597     4.06291
   949  H   1.0    0.06    0.98    13.75720     3.08025     1.56847
   950  H   1.0    0.07    0.99    11.41394     3.25033     4.32747
   951  C   4.0   -0.14    4.10    12.20763    -0.65007    -0.92030
   952  H   1.0    0.06    0.98    14.11625    -1.68941    -0.92030
   953  H   1.0    0.07    0.99    12.79344     0.90707    -2.20531
   954  H   1.0    0.06    0.99    11.05490    -1.82170    -2.31869
   955  C   4.0   -0.20    4.11     9.78878    -1.85949     2.96687
   956  H   1.0    0.09    1.00    11.41394    -2.61538     3.93063
   957  H   1.0    0.10    1.00     9.31635    -3.39017     1.75745
   958  H   1.0    0.09    1.00     8.31479    -0.89573     4.02512
   959  C   4.0   -0.15    4.09     8.35259     1.49288     0.00000
   960  H   1.0    0.10    1.01     9.07068     2.91018    -1.18486
   961  H   1.0    0.10    1.01     7.31324     2.19208     1.54958
   962  C   4.0   -0.09    3.99     6.33058    -0.15874    -1.65729
   963  H   1.0    0.07    0.99     7.21875    -1.10360    -3.32025
   964  H   1.0    0.07    1.00     5.44241    -1.74611    -0.61794
   965  O   6.0   -0.14    1.98     4.25188     1.15273    -2.56436
   966  H   1.0    0.09    0.99     2.75900    -0.06425    -2.18641
   967  C   4.0   -0.18    4.09    45.58019    49.07618    26.87190
   968  N   5.0   -0.23    3.97    46.41167    50.02105    24.35857
   969  H   1.0    0.07    0.99    45.86365    50.55017    28.40258
   970  H   1.0    0.10    1.00    46.77072    47.62109    27.51441
   971  H   1.0    0.08    1.00    43.63377    48.39588    26.77742
   972  C   4.0   -0.13    4.06    44.76761    52.40210    23.77275
   973  H   1.0    0.07    0.99    42.70781    52.00526    23.41370
   974  H   1.0    0.05    0.97    45.12666    53.38476    21.80744
   975  H   1.0    0.06    0.99    44.76761    53.97057    25.24674
   976  C   4.0   -0.19    4.09    49.13287    51.06040    24.11290
   977  H   1.0    0.08    1.00    49.69979    52.59107    25.39792
   978  H   1.0    0.08    1.00    50.24781    49.32185    24.24518
   979  H   1.0    0.09    1.00    49.49192    51.94857    22.31766
   980  C   4.0   -0.09    4.06    46.01483    47.86676    22.29877
   981  H   1.0    0.07    1.00    47.45102    46.31718    22.56333
   982  H   1.0    0.07    1.00    44.03061    47.28094    22.67671
   983  C   4.0   -0.10    4.01    46.44946    48.30140    19.46418
   984  H   1.0    0.07    1.00    45.52350    50.11553    18.91616
   985  H   1.0    0.08    1.00    48.43368    48.77383    19.10513
   986  O   6.0   -0.14    2.00    45.67468    46.22270    17.91460
   987  H   1.0    0.10    1.15    47.05418    45.73137    16.64849
   988  C   4.0   -0.20    4.19     6.44397     9.50532    27.93015
   989  N   5.0   -0.24    3.99     9.27855     9.76988    28.02464
   990  H   1.0    0.06    0.99     5.63138     8.59825    26.15381
   991  H   1.0    0.11    1.01     5.38572    11.13049    28.13802
   992  H   1.0    0.09    1.00     5.76366     8.40928    29.49862
   993  C   4.0   -0.16    4.15     9.61871    11.33836    25.62468
   994  H   1.0    0.08    1.00     8.69274    13.17139    25.81366
   995  H   1.0    0.07    0.99    11.71630    11.71630    25.45461
   996  H   1.0    0.07    1.00     8.91951    10.50688    23.82944
   997  C   4.0   -0.15    4.07     9.78878    11.60292    30.25451
   998  H   1.0    0.06    0.99    11.92417    11.81079    30.57577
   999  H   1.0    0.06    0.98     8.97620    13.58713    29.87657
  1000  H   1.0    0.09    1.00     8.93840    10.63916    31.84188
  1001  C   4.0   -0.08    4.04    10.58247     7.10537    28.10022
  1002  H   1.0    0.07    1.00    10.24231     6.16051    29.97105
  1003  H   1.0    0.06    0.99    12.73675     7.40773    27.94905
  1004  C   4.0   -0.14    4.02     9.84547     5.04557    26.19160
  1005  H   1.0    0.09    1.01     7.86126     4.79990    26.53175
  1006  H   1.0    0.10    1.01    10.22342     5.83925    24.41526
  1007  O   6.0   -0.13    1.97    11.22497     2.75900    26.45616
  1008  H   1.0    0.08    0.97     9.86437     1.54958    27.28764
  1009  C   4.0   -0.20    4.11    30.50018    17.66894    22.60112
  1010  N   5.0   -0.25    4.00    28.11912    17.91460    20.97596
  1011  H   1.0    0.09    1.00    32.27652    18.23586    21.78854
  1012  H   1.0    0.07    0.99    30.95371    15.70362    23.22473
  1013  H   1.0    0.10    1.00    30.08444    18.50042    24.37746
  1014  C   4.0   -0.21    4.11    26.07822    16.57290    22.39325
  1015  H   1.0    0.06    0.99    25.92704    17.23430    24.45305
  1016  H   1.0    0.08    1.00    24.20739    16.79966    21.56177
  1017  H   1.0    0.13    1.01    26.39947    14.70207    22.43105
  1018  C   4.0   -0.17    4.10    27.38213    20.54132    20.16338
  1019  H   1.0    0.07    0.99    25.66248    20.31455    18.93505
  1020  H   1.0    0.08    1.00    29.00729    21.31611    19.14292
  1021  H   1.0    0.09    1.00    27.15536    22.03420    21.52398
  1022  C   4.0   -0.11    4.14    28.68604    16.53510    18.42483
  1023  H   1.0    0.09    1.01    29.36634    14.64538    18.87836
  1024  H   1.0    0.08    1.00    30.17892    17.70673    17.51776
  1025  C   4.0   -0.12    4.02    26.89080    15.62803    16.30833
  1026  H   1.0    0.08    1.00    25.43571    14.43751    17.13981
  1027  H   1.0    0.09    1.01    26.24829    17.42327    15.57134
  1028  O   6.0   -0.11    1.95    28.27030    14.39971    14.30523
  1029  H   1.0    0.07    1.11    28.08133    15.81701    12.81234
  1030  C   4.0   -0.18    4.08     8.76833    20.42794    41.00705
  1031  N   5.0   -0.24    3.99     6.85971    19.86102    38.89056
  1032  H   1.0    0.08    1.00     8.95730    18.84057    42.29207
  1033  H   1.0    0.07    0.99     7.97464    21.95862    42.23537
  1034  H   1.0    0.08    1.00    10.67695    20.84368    40.34565
  1035  C   4.0   -0.21    4.12     4.30858    19.27520    39.92991
  1036  H   1.0    0.10    1.00     4.19519    18.06578    41.49838
  1037  H   1.0    0.09    1.00     3.43930    20.76809    40.98816
  1038  H   1.0    0.09    1.00     2.89128    18.61380    38.64490
  1039  C   4.0   -0.19    4.07     6.70853    22.16649    37.01973
  1040  H   1.0    0.06    0.98     5.63138    23.62157    38.28585
  1041  H   1.0    0.10    1.00     5.55579    22.12869    35.39457
  1042  H   1.0    0.09    1.00     8.48487    22.94127    36.41502
  1043  C   4.0   -0.09    4.15     7.74788    17.65004    37.30319
  1044  H   1.0    0.07    1.00     6.29279    17.29099    35.77251
  1045  H   1.0    0.09    1.01     9.54312    18.06578    36.41502
  1046  C   4.0   -0.11    4.02     8.37149    15.06112    38.34254
  1047  H   1.0    0.09    1.00     9.76988    15.28788    39.81653
  1048  H   1.0    0.07    1.00     6.57625    14.58868    39.32520
  1049  O   6.0   -0.16    2.01     9.24076    13.53044    36.24494
  1050  H   1.0    0.12    1.05     8.39038    11.86748    36.30164
  1051  C   4.0   -0.13    4.12    45.59909    26.36168     5.17785
  1052  N   5.0   -0.27    4.02    47.65889    26.66403     7.02978
  1053  H   1.0    0.05    0.96    46.31718    25.20894     3.36371
  1054  H   1.0    0.08    1.00    44.99437    28.32699     4.96998
  1055  H   1.0    0.08    1.00    43.93613    25.26564     5.78256
  1056  C   4.0   -0.14    4.08    48.64155    24.18849     7.95575
  1057  H   1.0    0.09    1.00    49.85097    23.35701     6.53845
  1058  H   1.0    0.08    1.00    47.26205    22.79009     8.61715
  1059  H   1.0    0.05    0.96    50.11553    24.49085     9.65650
  1060  C   4.0   -0.20    4.15    49.75648    28.02464     5.72587
  1061  H   1.0    0.07    0.99    49.32185    29.98995     5.08336
  1062  H   1.0    0.08    1.00    51.15488    28.11912     7.29434
  1063  H   1.0    0.13    1.01    50.43679    26.96639     4.28968
  1064  C   4.0   -0.08    4.12    46.58174    28.30809     9.20297
  1065  H   1.0    0.07    1.00    46.03372    30.16003     8.31479
  1066  H   1.0    0.07    0.99    44.63533    27.53331     9.65650
  1067  C   4.0   -0.08    4.01    48.07463    28.70494    11.75410
  1068  H   1.0    0.07    0.99    49.98325    29.53642    11.33836
  1069  H   1.0    0.08    1.00    48.45257    26.79631    12.47219
  1070  O   6.0   -0.14    1.99    46.58174    29.91436    13.45485
  1071  H   1.0    0.08    1.02    45.75027    28.45927    14.55089
  1072  C   4.0   -0.21    4.09    28.38368    26.87190    48.83052
  1073  N   5.0   -0.26    4.00    29.17737    27.64669    46.03372
  1074  H   1.0    0.10    1.01    28.62935    24.90659    48.88721
  1075  H   1.0    0.06    0.99    26.36168    27.36323    49.39744
  1076  H   1.0    0.09    1.00    29.49862    27.93015    50.15333
  1077  C   4.0   -0.14    4.09    28.62935    30.40569    45.97703
  1078  H   1.0    0.06    0.99    29.34744    31.14268    44.06841
  1079  H   1.0    0.11    1.01    29.72539    31.35055    47.29984
  1080  H   1.0    0.04    0.94    26.39947    30.99151    46.09042
  1081  C   4.0   -0.18    4.09    31.89857    26.90970    45.59909
  1082  H   1.0    0.07    0.99    32.86233    27.24985    43.76605
  1083  H   1.0    0.09    1.00    32.93792    27.94905    46.99748
  1084  H   1.0    0.08    1.00    32.35211    24.88769    45.75027
  1085  C   4.0   -0.08    4.16    27.41992    26.49396    44.14400
  1086  H   1.0    0.08    1.01    27.70338    24.43416    44.14400
  1087  H   1.0    0.07    1.00    25.39792    27.00418    44.54084
  1088  C   4.0   -0.11    4.04    27.87346    27.11757    41.34720
  1089  H   1.0    0.07    1.00    27.19316    29.08288    41.04485
  1090  H   1.0    0.10    1.01    29.80098    26.73962    41.00705
  1091  O   6.0   -0.19    2.04    26.28609    25.62468    39.98660
  1092  H   1.0    0.13    1.10    25.94594    26.21050    38.26695
  1093  C   4.0   -0.20    4.11    29.04509    41.21492    55.80361
  1094  N   5.0   -0.25    3.99    27.02308    39.30630    55.04772
  1095  H   1.0    0.10    1.00    28.19471    42.82119    56.59729
  1096  H   1.0    0.10    1.00    29.89546    42.08420    54.21624
  1097  H   1.0    0.06    0.98    30.46238    40.25116    57.15854
  1098  C   4.0   -0.20    4.07    25.68138    38.55041    57.61208
  1099  H   1.0    0.08    1.00    24.96328    40.08109    58.78371
  1100  H   1.0    0.10    1.00    24.05621    37.45437    57.21523
  1101  H   1.0    0.07    0.99    26.90970    37.28429    58.76481
  1102  C   4.0   -0.19    4.06    25.03887    40.57242    53.30917
  1103  H   1.0    0.07    0.99    25.94594    41.83853    51.87298
  1104  H   1.0    0.06    0.98    23.88614    41.95192    54.57529
[...]
  2684  C   3.956    O 2687 1.019    C 2681 0.972    H 2685 0.969    H 2686 0.964
  2685  H   0.998    C 2684 0.969
  2686  H   0.999    C 2684 0.964
  2687  O   2.042    C 2684 1.019    H 2688 0.816    O  256 0.085    C 2681 0.051
  2688  H   0.975    O 2687 0.816    O  256 0.146
  2689  C   3.906    H 2691 0.978    H 2692 0.976    H 2693 0.957    N 2690 0.932
  2690  N   3.761    C 2698 0.937    C 2689 0.932    C 2694 0.926    C 2702 0.895
  2691  H   0.999    C 2689 0.978
  2692  H   0.997    C 2689 0.976
  2693  H   0.988    C 2689 0.957
  2694  C   3.896    H 2696 0.977    H 2697 0.976    H 2695 0.968    N 2690 0.926
  2695  H   0.991    C 2694 0.968
  2696  H   0.997    C 2694 0.977
  2697  H   0.996    C 2694 0.976
  2698  C   3.906    H 2699 0.978    H 2701 0.976    H 2700 0.975    N 2690 0.937
  2699  H   0.998    C 2698 0.978
  2700  H   0.993    C 2698 0.975
  2701  H   0.995    C 2698 0.976
  2702  C   3.884    H 2703 0.975    H 2704 0.963    C 2705 0.943    N 2690 0.895    O 2708 0.057
  2703  H   0.997    C 2702 0.975
  2704  H   0.997    C 2702 0.963
  2705  C   3.946    O 2708 1.024    H 2707 0.971    H 2706 0.969    C 2702 0.943
  2706  H   0.995    C 2705 0.969
  2707  H   0.999    C 2705 0.971
  2708  O   2.082    C 2705 1.024    H 2709 0.939    C 2702 0.057
  2709  H   0.963    O 2708 0.939
  2710  C   3.909    H 2714 0.974    H 2712 0.973    H 2713 0.971    N 2711 0.927
  2711  N   3.762    C 2715 0.950    C 2719 0.932    C 2710 0.927    C 2723 0.872
  2712  H   0.995    C 2710 0.973
  2713  H   0.996    C 2710 0.971
  2714  H   0.999    C 2710 0.974
  2715  C   3.918    H 2716 0.978    H 2717 0.977    H 2718 0.974    N 2711 0.950
  2716  H   0.997    C 2715 0.978
  2717  H   0.996    C 2715 0.977
  2718  H   0.995    C 2715 0.974
  2719  C   3.897    H 2720 0.971    H 2721 0.971    H 2722 0.962    N 2711 0.932
  2720  H   0.995    C 2719 0.971
  2721  H   0.994    C 2719 0.971
  2722  H   0.995    C 2719 0.962
  2723  C   3.890    C 2726 0.999    H 2725 0.962    H 2724 0.961    N 2711 0.872
  2724  H   0.995    C 2723 0.961
  2725  H   0.996    C 2723 0.962
  2726  C   3.964    O 2729 1.009    C 2723 0.999    H 2727 0.967    H 2728 0.963
  2727  H   1.000    C 2726 0.967
  2728  H   0.999    C 2726 0.963
  2729  O   2.039    C 2726 1.009    H 2730 0.840    O  494 0.073
  2730  H   0.974    O 2729 0.840    O  494 0.123
  2731  C   3.900    H 2735 0.977    H 2734 0.976    H 2733 0.971    N 2732 0.929
  2732  N   3.743    C 2736 0.934    C 2731 0.929    C 2740 0.911    C 2744 0.891
  2733  H   0.992    C 2731 0.971
  2734  H   0.996    C 2731 0.976
  2735  H   0.997    C 2731 0.977
  2736  C   3.904    H 2739 0.978    H 2737 0.976    H 2738 0.972    N 2732 0.934
  2737  H   0.995    C 2736 0.976
  2738  H   0.994    C 2736 0.972
  2739  H   0.997    C 2736 0.978
  2740  C   3.897    H 2743 0.981    H 2742 0.976    H 2741 0.973    N 2732 0.911
  2741  H   0.994    C 2740 0.973
  2742  H   0.995    C 2740 0.976
  2743  H   0.997    C 2740 0.981
  2744  C   3.866    H 2745 0.967    C 2747 0.959    H 2746 0.957    N 2732 0.891
  2745  H   0.997    C 2744 0.967
  2746  H   0.995    C 2744 0.957
  2747  C   3.958    O 2750 1.028    H 2749 0.971    H 2748 0.968    C 2744 0.959
  2748  H   0.997    C 2747 0.968
  2749  H   0.999    C 2747 0.971
  2750  O   2.091    C 2747 1.028    H 2751 0.966
  2751  H   0.976    O 2750 0.966
  2752  C   3.927    H 2754 0.978    H 2755 0.977    H 2756 0.976    N 2753 0.954
  2753  N   3.767    C 2752 0.954    C 2757 0.918    C 2761 0.913    C 2765 0.909
  2754  H   0.994    C 2752 0.978
  2755  H   0.998    C 2752 0.977
  2756  H   0.998    C 2752 0.976
  2757  C   3.898    H 2759 0.976    H 2758 0.972    H 2760 0.971    N 2753 0.918
  2758  H   0.997    C 2757 0.972
  2759  H   0.993    C 2757 0.976
  2760  H   0.996    C 2757 0.971
  2761  C   3.888    H 2763 0.974    H 2764 0.971    H 2762 0.968    N 2753 0.913
  2762  H   0.995    C 2761 0.968
  2763  H   0.997    C 2761 0.974
  2764  H   0.995    C 2761 0.971
  2765  C   3.887    H 2766 0.963    H 2767 0.959    C 2768 0.958    N 2753 0.909
  2766  H   0.995    C 2765 0.963
  2767  H   0.998    C 2765 0.959
  2768  C   3.946    O 2771 1.017    H 2770 0.969    H 2769 0.962    C 2765 0.958
  2769  H   0.998    C 2768 0.962
  2770  H   0.998    C 2768 0.969
  2771  O   2.086    C 2768 1.017    H 2772 0.969
  2772  H   0.976    O 2771 0.969
  2773  C   3.899    H 2777 0.977    H 2775 0.976    H 2776 0.974    N 2774 0.916
  2774  N   3.762    C 2782 0.955    C 2778 0.935    C 2773 0.916    C 2786 0.874
  2775  H   0.994    C 2773 0.976
  2776  H   0.997    C 2773 0.974
  2777  H   0.996    C 2773 0.977
  2778  C   3.908    H 2779 0.976    H 2781 0.974    H 2780 0.973    N 2774 0.935
  2779  H   0.997    C 2778 0.976
  2780  H   0.997    C 2778 0.973
  2781  H   0.995    C 2778 0.974
  2782  C   3.913    H 2783 0.978    H 2784 0.970    H 2785 0.964    N 2774 0.955
  2783  H   0.997    C 2782 0.978
  2784  H   0.996    C 2782 0.970
  2785  H   0.993    C 2782 0.964
  2786  C   3.872    H 2787 0.964    C 2789 0.959    H 2788 0.955    N 2774 0.874    O 2792 0.065
  2787  H   0.997    C 2786 0.964
  2788  H   0.997    C 2786 0.955
  2789  C   3.962    O 2792 1.041    H 2790 0.970    H 2791 0.965    C 2786 0.959
  2790  H   0.999    C 2789 0.970
  2791  H   0.999    C 2789 0.965
  2792  O   2.067    C 2789 1.041    H 2793 0.757    O  137 0.105    C 2786 0.065
  2793  H   0.977    O 2792 0.757    O  137 0.205
  2794  C   3.841    H 2798 0.932    H 2797 0.924    H 2796 0.920    N 2795 0.780    C 2807 0.097    C 2803 0.054
  2795  N   3.347    C 2799 0.876    C 2803 0.788    C 2794 0.780    C 2807 0.678
  2796  H   0.998    C 2794 0.920
  2797  H   0.999    C 2794 0.924
  2798  H   0.998    C 2794 0.932
  2799  C   3.919    H 2802 0.965    H 2801 0.964    H 2800 0.933    N 2795 0.876
  2800  H   0.997    C 2799 0.933
  2801  H   0.999    C 2799 0.964
  2802  H   0.998    C 2799 0.965
  2803  C   3.909    H 2806 0.964    H 2805 0.953    H 2804 0.937    N 2795 0.788    C 2807 0.073    C 2794 0.054
  2804  H   0.997    C 2803 0.937
  2805  H   0.999    C 2803 0.953
  2806  H   0.997    C 2803 0.964
  2807  C   3.717    H 2808 0.954    H 2809 0.898    C 2810 0.864    N 2795 0.678    C 2794 0.097    C 2803 0.073
  2808  H   0.998    C 2807 0.954
  2809  H   0.999    C 2807 0.898
  2810  C   3.921    O 2813 0.972    H 2811 0.966    H 2812 0.963    C 2807 0.864
  2811  H   0.997    C 2810 0.966
  2812  H   1.000    C 2810 0.963
  2813  O   2.052    C 2810 0.972    H 2814 0.967
  2814  H   0.973    O 2813 0.967
  2815  C   3.904    H 2819 0.979    H 2818 0.977    H 2817 0.970    N 2816 0.923
  2816  N   3.759    C 2820 0.935    C 2815 0.923    C 2828 0.912    C 2824 0.911
  2817  H   0.993    C 2815 0.970
  2818  H   0.998    C 2815 0.977
  2819  H   0.995    C 2815 0.979
  2820  C   3.914    H 2823 0.978    H 2822 0.970    H 2821 0.968    N 2816 0.935
  2821  H   0.996    C 2820 0.968
  2822  H   0.997    C 2820 0.970
  2823  H   0.997    C 2820 0.978
  2824  C   3.881    H 2826 0.974    H 2825 0.971    H 2827 0.955    N 2816 0.911
  2825  H   0.997    C 2824 0.971
  2826  H   0.996    C 2824 0.974
  2827  H   0.994    C 2824 0.955
  2828  C   3.890    H 2829 0.966    H 2830 0.959    C 2831 0.958    N 2816 0.912
  2829  H   0.995    C 2828 0.966
  2830  H   0.997    C 2828 0.959
  2831  C   3.960    O 2834 1.027    H 2833 0.971    H 2832 0.969    C 2828 0.958
  2832  H   0.998    C 2831 0.969
  2833  H   0.999    C 2831 0.971
  2834  O   2.058    C 2831 1.027    H 2835 0.855    O  228 0.065
  2835  H   0.974    O 2834 0.855    O  228 0.105
  2836  C   3.909    H 2840 0.964    H 2838 0.947    H 2839 0.939    N 2837 0.832    C 2849 0.091
  2837  N   3.303    C 2841 0.839    C 2845 0.835    C 2836 0.832    C 2849 0.592
  2838  H   0.998    C 2836 0.947
  2839  H   0.998    C 2836 0.939
  2840  H   0.998    C 2836 0.964
  2841  C   3.920    H 2844 0.960    H 2842 0.960    H 2843 0.959    N 2837 0.839    C 2849 0.066
  2842  H   0.997    C 2841 0.960
  2843  H   0.998    C 2841 0.959
  2844  H   0.998    C 2841 0.960
  2845  C   3.918    H 2846 0.967    H 2847 0.959    H 2848 0.949    N 2837 0.835    C 2849 0.073
  2846  H   0.998    C 2845 0.967
  2847  H   0.998    C 2845 0.959
  2848  H   0.998    C 2845 0.949
  2849  C   3.656    H 2851 0.941    H 2850 0.916    C 2852 0.869    N 2837 0.592    C 2836 0.091    C 2845 0.073    C 2841 0.066
  2850  H   0.999    C 2849 0.916
  2851  H   0.999    C 2849 0.941
  2852  C   3.915    H 2854 0.979    O 2855 0.976    H 2853 0.967    C 2849 0.869
  2853  H   0.998    C 2852 0.967
  2854  H   0.999    C 2852 0.979
  2855  O   2.033    C 2852 0.976    H 2856 0.972
  2856  H   0.976    O 2855 0.972
  2857  C   3.933    H 2860 0.969    H 2861 0.959    N 2858 0.959    H 2859 0.950
  2858  N   3.305    C 2857 0.959    C 2862 0.844    C 2866 0.741    C 2870 0.555
  2859  H   0.996    C 2857 0.950
  2860  H   0.998    C 2857 0.969
  2861  H   0.998    C 2857 0.959
  2862  C   3.897    H 2863 0.966    H 2864 0.961    H 2865 0.937    N 2858 0.844    C 2870 0.067
  2863  H   0.997    C 2862 0.966
  2864  H   0.996    C 2862 0.961
  2865  H   0.996    C 2862 0.937
  2866  C   3.848    H 2869 0.946    H 2868 0.945    H 2867 0.933    N 2858 0.741    C 2870 0.130
  2867  H   0.998    C 2866 0.933
  2868  H   0.998    C 2866 0.945
  2869  H   0.998    C 2866 0.946
  2870  C   3.655    H 2871 0.955    H 2872 0.929    C 2873 0.892    N 2858 0.555    C 2866 0.130    C 2862 0.067
  2871  H   0.997    C 2870 0.955
  2872  H   0.996    C 2870 0.929
  2873  C   3.929    O 2876 0.994    H 2874 0.964    H 2875 0.963    C 2870 0.892
  2874  H   0.999    C 2873 0.964
  2875  H   0.998    C 2873 0.963
  2876  O   2.054    C 2873 0.994    H 2877 0.962
  2877  H   0.972    O 2876 0.962
  2878  C   3.895    H 2882 0.980    H 2880 0.974    H 2881 0.972    N 2879 0.920
  2879  N   3.761    C 2887 0.950    C 2883 0.931    C 2878 0.920    C 2891 0.887
  2880  H   0.994    C 2878 0.974
  2881  H   0.993    C 2878 0.972
  2882  H   0.997    C 2878 0.980
  2883  C   3.915    H 2884 0.981    H 2886 0.979    H 2885 0.975    N 2879 0.931
  2884  H   0.998    C 2883 0.981
  2885  H   0.994    C 2883 0.975
  2886  H   0.995    C 2883 0.979
  2887  C   3.921    H 2889 0.981    H 2888 0.974    H 2890 0.972    N 2879 0.950
  2888  H   0.995    C 2887 0.974
  2889  H   0.997    C 2887 0.981
  2890  H   0.995    C 2887 0.972
  2891  C   3.892    C 2894 0.973    H 2892 0.967    H 2893 0.963    N 2879 0.887
  2892  H   0.998    C 2891 0.967
  2893  H   0.996    C 2891 0.963
  2894  C   3.933    O 2897 1.007    C 2891 0.973    H 2895 0.964    H 2896 0.964
  2895  H   0.997    C 2894 0.964
  2896  H   0.998    C 2894 0.964
  2897  O   2.079    C 2894 1.007    H 2898 0.965
  2898  H   0.974    O 2897 0.965
  2899  C   3.880    H 2902 0.967    H 2903 0.951    H 2901 0.937    N 2900 0.751    C 2912 0.101
  2900  N   3.281    C 2904 0.895    C 2908 0.842    C 2899 0.751    C 2912 0.580
  2901  H   0.996    C 2899 0.937
  2902  H   0.999    C 2899 0.967
  2903  H   0.998    C 2899 0.951
  2904  C   3.914    H 2905 0.959    H 2906 0.959    H 2907 0.951    N 2900 0.895
  2905  H   0.998    C 2904 0.959
  2906  H   0.996    C 2904 0.959
  2907  H   0.998    C 2904 0.951
  2908  C   3.909    H 2909 0.958    H 2911 0.949    H 2910 0.939    N 2900 0.842    C 2912 0.067
  2909  H   0.998    C 2908 0.958
  2910  H   0.997    C 2908 0.939
  2911  H   0.998    C 2908 0.949
  2912  C   3.692    H 2914 0.956    H 2913 0.929    C 2915 0.914    N 2900 0.580    C 2899 0.101    C 2908 0.067
  2913  H   0.998    C 2912 0.929
  2914  H   0.999    C 2912 0.956
  2915  C   3.927    H 2917 0.967    H 2916 0.967    O 2918 0.946    C 2912 0.914
  2916  H   0.998    C 2915 0.967
  2917  H   0.997    C 2915 0.967
  2918  O   2.013    H 2919 0.967    C 2915 0.946
  2919  H   0.975    O 2918 0.967
  2920  C   3.873    H 2924 0.966    H 2923 0.962    H 2922 0.960    N 2921 0.902
  2921  N   3.623    C 2925 0.924    C 2920 0.902    C 2929 0.855    C 2933 0.811
  2922  H   0.996    C 2920 0.960
  2923  H   0.990    C 2920 0.962
  2924  H   0.993    C 2920 0.966
  2925  C   3.861    H 2926 0.972    H 2928 0.967    H 2927 0.961    N 2921 0.924
  2926  H   0.988    C 2925 0.972
  2927  H   0.987    C 2925 0.961
  2928  H   0.990    C 2925 0.967
  2929  C   3.879    H 2931 0.969    H 2930 0.967    H 2932 0.949    N 2921 0.855
  2930  H   0.989    C 2929 0.967
  2931  H   0.996    C 2929 0.969
  2932  H   0.993    C 2929 0.949
  2933  C   3.792    C 2936 0.978    H 2935 0.961    H 2934 0.943    N 2921 0.811    O 2939 0.051
  2934  H   0.986    C 2933 0.943
  2935  H   0.996    C 2933 0.961
  2936  C   3.955    O 2939 1.029    C 2933 0.978    H 2937 0.959    H 2938 0.952
  2937  H   1.000    C 2936 0.959
  2938  H   0.997    C 2936 0.952
  2939  O   2.025    C 2936 1.029    H 2940 0.759    O  157 0.097    C 2933 0.051
  2940  H   0.972    O 2939 0.759    O  157 0.189
  2941  C   3.901    H 2944 0.976    H 2945 0.970    H 2943 0.965    N 2942 0.934
  2942  N   3.754    C 2941 0.934    C 2950 0.922    C 2946 0.915    C 2954 0.909
  2943  H   0.994    C 2941 0.965
  2944  H   0.998    C 2941 0.976
  2945  H   0.996    C 2941 0.970
  2946  C   3.898    H 2947 0.978    H 2949 0.975    H 2948 0.969    N 2942 0.915
  2947  H   0.997    C 2946 0.978
  2948  H   0.993    C 2946 0.969
  2949  H   0.997    C 2946 0.975
  2950  C   3.895    H 2952 0.973    H 2953 0.972    H 2951 0.970    N 2942 0.922
  2951  H   0.997    C 2950 0.970
  2952  H   0.993    C 2950 0.973
  2953  H   0.992    C 2950 0.972
  2954  C   3.885    H 2955 0.966    C 2957 0.960    H 2956 0.953    N 2942 0.909
  2955  H   0.998    C 2954 0.966
  2956  H   0.996    C 2954 0.953
  2957  C   3.951    O 2960 1.024    H 2958 0.966    H 2959 0.963    C 2954 0.960
  2958  H   1.000    C 2957 0.966
  2959  H   0.996    C 2957 0.963
  2960  O   2.082    C 2957 1.024    H 2961 0.958
  2961  H   0.973    O 2960 0.958
  2962  C   3.841    H 2964 0.972    H 2965 0.968    H 2966 0.965    N 2963 0.891
  2963  N   3.621    C 2975 0.926    C 2962 0.891    C 2971 0.879    C 2967 0.855
  2964  H   0.992    C 2962 0.972
  2965  H   0.988    C 2962 0.968
  2966  H   0.987    C 2962 0.965
  2967  C   3.807    H 2969 0.976    H 2968 0.966    H 2970 0.964    N 2963 0.855
  2968  H   0.984    C 2967 0.966
  2969  H   0.989    C 2967 0.976
  2970  H   0.989    C 2967 0.964
  2971  C   3.841    H 2974 0.978    H 2972 0.977    H 2973 0.975    N 2963 0.879
  2972  H   0.989    C 2971 0.977
  2973  H   0.989    C 2971 0.975
  2974  H   0.991    C 2971 0.978
  2975  C   3.890    C 2978 0.975    H 2976 0.963    H 2977 0.956    N 2963 0.926
  2976  H   0.996    C 2975 0.963
  2977  H   0.995    C 2975 0.956
  2978  C   3.946    O 2981 1.002    C 2975 0.975    H 2980 0.970    H 2979 0.967
  2979  H   0.997    C 2978 0.967
  2980  H   0.999    C 2978 0.970
  2981  O   2.061    C 2978 1.002    H 2982 0.963
  2982  H   0.974    O 2981 0.963
  2983  C   3.910    H 2986 0.972    H 2985 0.972    H 2987 0.969    N 2984 0.936
  2984  N   3.749    C 2992 0.952    C 2983 0.936    C 2988 0.921    C 2996 0.866
  2985  H   0.994    C 2983 0.972
  2986  H   0.994    C 2983 0.972
  2987  H   0.997    C 2983 0.969
  2988  C   3.902    H 2991 0.975    H 2990 0.975    H 2989 0.972    N 2984 0.921
  2989  H   0.995    C 2988 0.972
  2990  H   0.997    C 2988 0.975
  2991  H   0.996    C 2988 0.975
  2992  C   3.917    H 2995 0.974    H 2993 0.973    H 2994 0.968    N 2984 0.952
  2993  H   0.997    C 2992 0.973
  2994  H   0.996    C 2992 0.968
  2995  H   0.997    C 2992 0.974
  2996  C   3.874    C 2999 0.970    H 2997 0.967    H 2998 0.960    N 2984 0.866    O 3002 0.059
  2997  H   0.995    C 2996 0.967
  2998  H   0.995    C 2996 0.960
  2999  C   3.955    O 3002 1.029    H 3001 0.973    C 2996 0.970    H 3000 0.960
  3000  H   0.997    C 2999 0.960
  3001  H   1.000    C 2999 0.973
  3002  O   2.099    C 2999 1.029    H 3003 0.875    O  564 0.060    C 2996 0.059
  3003  H   0.976    O 3002 0.875    O  564 0.093
  3004  C   3.750    H 3007 0.962    H 3008 0.956    H 3006 0.949    N 3005 0.812
  3005  N   3.380    C 3009 0.913    C 3017 0.822    C 3004 0.812    C 3013 0.735
  3006  H   0.976    C 3004 0.949
  3007  H   0.986    C 3004 0.962
  3008  H   0.978    C 3004 0.956
  3009  C   3.877    H 3010 0.978    H 3011 0.975    H 3012 0.961    N 3005 0.913
  3010  H   0.993    C 3009 0.978
  3011  H   0.996    C 3009 0.975
  3012  H   0.985    C 3009 0.961
  3013  C   3.676    H 3015 0.956    H 3016 0.955    H 3014 0.929    N 3005 0.735
  3014  H   0.963    C 3013 0.929
  3015  H   0.979    C 3013 0.956
  3016  H   0.983    C 3013 0.955
  3017  C   3.760    H 3019 0.956    C 3020 0.950    H 3018 0.928    N 3005 0.822
  3018  H   0.973    C 3017 0.928
  3019  H   0.989    C 3017 0.956
  3020  C   3.919    O 3023 1.011    H 3021 0.958    H 3022 0.956    C 3017 0.950
  3021  H   0.998    C 3020 0.958
  3022  H   0.996    C 3020 0.956
  3023  O   1.991    C 3020 1.011    H 3024 0.773    O  507 0.094
  3024  H   0.976    O 3023 0.773    O  507 0.187
 
 --------------------------------------------
          xTB calculation for sTDA...
 --------------------------------------------
 
 reading parameter file /home/karl/Software/xtb2/.param_stda2.xtb
 
      method parameters     
 k(s)        :  1.6000
 k(p)        :  2.1800
 k(d)        :  1.9500
 k(f)        :  2.0000
 k(R-V)      :  2.2750
 k(R-R)      :  1.7650
 Tscal       :  0.2580
 Gscal       :  1.0000
 fpol        :  1.0000
 Zcnf        :  0.3430
 Zqf         :  0.0000
 kcn         :  2.7000
 Ryd Hsplit  :  0.7000
 lshift(virt):  3.1000
 lshift(OS)  :  0.2000
 wllscaling  :  2.6000
 
 mowrcut     : 3.000
 
  Z AO/shell   Hii/eV     exponent
  1     Sun Feb 14 09:53:25 CET 2016    EN: 2.327 GAM: 0.473  GM3: 0.0000
     1s    -14.339618    1.220000
     2sp    -3.348946    0.600000
  6     Sun Feb 14 09:53:25 CET 2016    EN: 2.731 GAM: 0.422  GM3: 0.0000
     2s    -22.009312    1.565095
     2p    -13.020408    1.596905
     3sp    -3.914040    0.824500
  7     Sun Feb 14 09:53:25 CET 2016    EN: 3.573 GAM: 0.504  GM3: 0.0000
     2s    -25.722000    2.064844
     2p    -18.684912    1.801692
     3sp    -4.344791    0.921400
  8     Sun Feb 14 09:53:25 CET 2016    EN: 3.700 GAM: 0.587  GM3: 0.0000
     2s    -33.859000    2.418661
     2p    -22.175911    1.973969
     3sp    -4.259392    1.013700
 
 Nbf   :        18684
 T(el) :     0.0
 calculating S/T integrals ...
 cpu time for ints    143.493341000000     
 Nao   :        18684
 making H0...
 making H1...
 cpu time for H       47.6675500000000     
 solving ...
 cpu time for diag    2081.16786600000     
 
 gap (eV)           :   3.101
 Koopmans IP (eV)   :  10.924
 Eel (Eh)           : -7192.169866

          eigenvalues
 #    :        3660       3661       3662       3663       3664       3665       3666       3667
 occ. :        2.000      2.000      2.000      2.000      2.000      2.000      2.000      2.000
 eps  :       -10.985    -10.983    -10.981    -10.974    -10.965    -10.959    -10.951    -10.951
 #    :        3668       3669       3670       3671       3672       3673       3674       3675
 occ. :        2.000      2.000      2.000      2.000      2.000      0.000      0.000      0.000
 eps  :       -10.945    -10.942    -10.937    -10.932    -10.925     -7.824     -7.814     -7.812
 #    :        3676       3677       3678       3679       3680       3681       3682       3683
 occ. :        0.000      0.000      0.000      0.000      0.000      0.000      0.000      0.000
 eps  :        -7.805     -7.801     -7.790     -7.788     -7.787     -7.782     -7.780     -7.761
                            1  SCC done.
 writing mo output ...
 molden style : F
 
speedup  3.01
cpu  time for all   49 m 18.9 s
wall time for all   16 m 24.5 s
