 
        ______________________________________
       |                                      |
       |           ==================         |
       |                 x T B                |
       |           ==================         |
       |               S. Grimme              |
       |        Universitaet Bonn, MCTC       |
       |         2015-18, Version 5.8.1       |
       |      Sun Jun  3 17:06:45 CEST 2018   |
       |______________________________________|
 
        This code comes without any warranty
        for non-commercial, academia use only.
        Preliminary GFN2 test version.
        Cite GFN-xTB work as:
        S. Grimme, C. Bannwarth, P. Shushkov
        JCTC, 13 (2017) 1989-2009
        for GFN2:
        C. Bannwarth, S. Ehlert, S. Grimme
        to be published.
        sTDA-xTB:
        S. Grimme  &  C. Bannwarth, JCP 145 (2016) 054103
        in the mass-spec context additionally:
        V. Asgeirsson, C.Bauer, S. Grimme, Chem. Sci. 8 (2017) 4879
 
        with help from
        P. Shushkov, G. Brandenburg, S. Dohm, J. Pisarek,
        F. März, M. Checinski, S. Ehrlich, S. Spicher, 
        P. Pracht, E. Caldeweyher, S. Ehlert, and C. Bannwarth.
 
        usage        :
        xtb <coord_file> [options]
        where <coord_file> is a valid file of TM)
        (*coord, Bohr) or xmol (*xyz, Angstroem)
        format.

        options:
        -chrg <int>   : molecular charge
        -uhf  <int>   : # of unpaired electrons(=2*S)
        -nox          : skip second, extended part in sTDA-xTB
        -pop          : do population analysis
                      : (default for -nox)
        -mowr <real>  : cut MO write above (def.3 Eh)
        -molden       : write formatted molden file
        -parx <file>  : read parameters for sTDA-xTB
                        calc (def:~/.param_stda2.xtb)
        -parv <file>  : read parameters for vTB part in
                        sTDA-xTB (def: ~/.param_stda1.xtb)
        -xtemp <real> : el. temp for xTB (def. 0 K)
        -etemp <real> : el. temp for GFN (def. 300 K)
        -fod          : calculate the FOD and write
                        molden.input file with
                        appropriate occupations
                        for plotting. Def. T=12500 K
 
        -gfn1         : use GFN-xTB
        -gfn2         : use GFN2-xTB
        -gfn2d3       : GFN2-xTB with D3 instead of D4
        -grad         : GFNn-xTB gradient
        -acc <real>   : GFNn-xTB accuracy (def. 1.0)
        -opt [level]  : optimize at GFNn-xTB
                      : level=crude,vloose,loose,
                      :       tight,vtight
        -hess         : compute Hessian at GFNn-xTB
        -ohess        : optimize and compute Hessian
        -omd          : optimize and do MD
        -siman        : conformational search
        -screen       : opt. loop over ensemble
        -gmd          : annealed MD for GMD procedure
        -modef        : vib mode following
        -gbsa [string1] [string2]
                        use GBSA implicit solvent
                        for solvent [string1] and
                        solvation state [string2]=
                        reference, bar1M (default=1M)
        additional GFN/opt/MD/siman options read from
        $XTBHOME/.xtbrc or $set in coordinate file
 
       spin and charge state information can be on:
       <.CHRG> (charge) and <.UHF> (=nalpha-nbeta)
       -uhf and -chrg override the file info.
       useful machine settings:
       setenv MKL_NUM_THREADS <NCORE_ON_YOUR_MACHINE>
       setenv OMP_STACKSIZE 500m
       limit stacksize unlimited
 
       total energies in Eh, gaps/HL energies in eV
       please read REVISION and HOWTO files carefully
         179  days left until this code expires
 =============================
  # OMP threads =           8
 =============================
 
 xtbhome directory:/home/karl/Software/xtb2/
 
 
 name of molecule           :
 comment line               :
 number of atoms            :  2240
 number of electrons        :  5440
 charge                     :  0
 spin                       : 0.0
 first test random number   :  0.0962
 
 -----------------------------------------
      charge density (VTB) calculation
 -----------------------------------------
 
      method parameters     
 k(s)        :  1.8000
 k(p)        :  2.8350
 k(d)        :  2.0860
 k(f)        :  2.0000
 Tscal       :  0.3300
 Gscal       :  0.3910
 fpol        :  1.0000
 Zcnf        :  0.6500
 Zqf         :  0.0000
 kcn         :  0.3000
 kEN1        : -0.5900
 wllscal     :  2.6000
 
     -------------------------
     ! NO SOLVENT MODEL USED !
     -------------------------
 
 doing EN charges ...
 sum q :  0.3996803D-14
 point charge moment (au)
     X       Y       Z   
   2.2068  -1.0452  -4.8726  total (Debye):   13.853
 
            Z      q(EN)   CN      Cart. coordinates
     1  C   4.0   -0.22    4.03    40.62911     4.36527    43.36921
     2  C   4.0    0.18    3.02    41.17713     5.89594    45.65578
     3  O   6.0   -0.09    1.06    39.34409     6.97309    46.69513
     4  O   6.0   -0.09    1.06    43.48259     6.34948    46.10931
     5  H   1.0    0.07    0.99    41.89522     2.66451    43.16134
     6  H   1.0    0.07    1.00    38.56931     3.91173    43.48259
     7  H   1.0    0.08    1.00    41.02595     5.46131    41.64956
     8  C   4.0   -0.28    4.05    40.95036    47.37543     3.62827
     9  C   4.0    0.20    3.02    39.04174    47.73448     1.56847
    10  O   6.0   -0.09    1.05    38.41813    49.92089     1.02045
    11  O   6.0   -0.11    1.22    38.49372    45.76916     0.37795
    12  H   1.0    0.10    1.00    41.21492    49.01382     4.72431
    13  H   1.0    0.08    1.00    40.49683    46.05262     5.12116
    14  H   1.0    0.09    1.00    42.70781    46.69513     2.85349
    15  C   4.0   -0.23    4.02     1.98421    18.70829    42.40545
    16  C   4.0    0.19    3.01     1.87083    15.85480    41.95192
    17  O   6.0   -0.10    1.05     1.24722    15.08001    39.87322
    18  O   6.0   -0.08    1.05     2.05980    14.56979    43.97392
    19  H   1.0    0.06    0.99     1.53068    19.89881    40.68580
    20  H   1.0    0.08    1.00     0.60471    19.35079    43.82274
    21  H   1.0    0.08    1.00     3.77945    19.14292    43.29362
    22  C   4.0   -0.26    4.03     5.40462    24.92549    43.01016
    23  C   4.0    0.20    3.01     6.16051    27.17426    44.63533
    24  O   6.0   -0.10    1.06     8.16362    28.30809    44.31407
    25  O   6.0   -0.10    1.07     4.49755    28.06243    45.99593
    26  H   1.0    0.09    1.00     6.48176    24.60423    41.34720
    27  H   1.0    0.09    1.00     5.49910    23.13025    43.91723
    28  H   1.0    0.07    1.00     3.34481    25.15225    42.61332
    29  C   4.0   -0.26    4.01    20.65470     7.55890    16.25164
    30  C   4.0    0.18    3.01    18.44373     8.93840    14.81545
    31  O   6.0   -0.10    1.24    17.13981    10.56357    16.02488
    32  O   6.0   -0.10    1.05    18.25475     8.63605    12.49109
    33  H   1.0    0.12    1.01    19.84212     6.06602    17.17761
    34  H   1.0    0.08    1.00    21.52398     8.91951    17.55555
    35  H   1.0    0.06    0.99    22.09090     6.55735    15.00442
    36  C   4.0   -0.26    4.03    27.47662    40.30785    44.65422
    37  C   4.0    0.19    3.01    30.12223    41.59287    44.55974
    38  O   6.0   -0.09    1.05    31.99306    40.27006    43.97392
    39  O   6.0   -0.10    1.05    30.25451    43.86054    45.10776
    40  H   1.0    0.09    1.00    27.19316    39.51417    46.50616
    41  H   1.0    0.09    1.00    26.02153    41.72515    44.78650
    42  H   1.0    0.08    1.00    27.19316    38.89056    43.19914
    43  C   4.0   -0.26    4.04    16.19495    42.32986     7.74788
    44  C   4.0    0.18    3.02    15.64693    43.23693     5.17785
    45  O   6.0   -0.07    1.04    16.70518    42.15979     3.23143
    46  O   6.0   -0.10    1.06    14.11625    44.97548     4.96998
    47  H   1.0    0.08    1.00    16.36503    44.03061     8.88171
    48  H   1.0    0.09    1.01    18.02799    41.47948     7.55890
    49  H   1.0    0.08    1.00    14.96663    40.89367     8.57936
    50  C   4.0   -0.23    4.04    26.05932    14.05956    15.55244
    51  C   4.0    0.20    3.02    27.76007    16.04377    16.61069
    52  O   6.0   -0.10    1.07    29.27185    17.00753    15.09891
    53  O   6.0   -0.10    1.06    27.49551    16.66738    18.84057
    54  H   1.0    0.06    0.99    26.24829    12.28322    16.74297
    55  H   1.0    0.07    1.00    24.13180    14.87214    15.68473
    56  H   1.0    0.09    1.00    26.47506    13.41705    13.68162
    57  C   4.0   -0.25    4.04    41.46059    35.62133    50.92811
    58  C   4.0    0.18    3.01    43.55818    33.80720    50.17222
    59  O   6.0   -0.09    1.05    43.69046    33.33477    47.84786
    60  O   6.0   -0.09    1.05    44.67312    32.71116    51.96746
    61  H   1.0    0.09    1.00    39.70314    34.88434    50.21002
    62  H   1.0    0.08    1.00    41.47948    35.77251    52.98792
    63  H   1.0    0.08    1.00    41.55507    37.39768    49.88877
    64  C   4.0   -0.23    4.02    40.51572    39.00394     6.51955
    65  C   4.0    0.17    3.02    38.15357    38.05908     7.69118
    66  O   6.0   -0.08    1.06    36.90635    36.26384     6.67073
    67  O   6.0   -0.09    1.09    37.52996    38.83387     9.88327
    68  H   1.0    0.09    1.00    40.68580    40.93146     7.14316
    69  H   1.0    0.07    1.00    40.11888    39.04174     4.44086
    70  H   1.0    0.07    0.99    42.34876    37.92680     6.68963
    71  C   4.0   -0.26    4.03    33.92058     7.16206    42.23537
    72  C   4.0    0.17    3.01    31.19938     6.19830    42.21648
    73  O   6.0   -0.08    1.05    30.61356     4.40306    43.70936
    74  O   6.0   -0.10    1.10    29.59311     7.21875    40.78029
    75  H   1.0    0.09    1.00    35.20559     5.89594    43.18024
    76  H   1.0    0.07    1.00    34.67647     7.59670    40.32675
    77  H   1.0    0.10    1.00    34.01507     8.95730    43.08575
    78  C   4.0   -0.26    4.03    42.00861    46.65733    10.14783
    79  C   4.0    0.19    3.02    40.79918    47.29984    12.56668
    80  O   6.0   -0.10    1.27    38.92835    48.80595    12.58557
    81  O   6.0   -0.09    1.06    41.19603    46.07152    14.55089
    82  H   1.0    0.07    1.00    41.64956    44.72981     9.41084
    83  H   1.0    0.08    1.00    44.04951    46.92190     9.99665
    84  H   1.0    0.10    1.01    41.32831    47.94235     8.80612
    85  C   4.0   -0.27    4.05    25.60579    29.76318    53.80050
    86  C   4.0    0.19    3.02    23.54599    29.38524    55.66566
    87  O   6.0   -0.10    1.06    23.98062    29.78208    57.93333
    88  O   6.0   -0.10    1.07    21.58067    28.32699    54.93433
    89  H   1.0    0.07    1.00    27.23095    28.55376    54.36742
    90  H   1.0    0.08    1.00    26.34278    31.67181    53.87609
    91  H   1.0    0.11    1.01    25.00107    29.23406    52.02416
    92  C   4.0   -0.24    4.04    27.55220     0.07559    24.15070
    93  C   4.0    0.19    3.02    28.25140     2.77790    23.96173
    94  O   6.0   -0.12    1.23    28.10022     4.00622    25.94594
    95  O   6.0   -0.09    1.09    28.72383     3.68497    21.78854
    96  H   1.0    0.08    1.00    26.38057    -0.35338    22.48774
    97  H   1.0    0.08    1.00    29.10178    -1.26045    24.24518
    98  H   1.0    0.07    1.00    26.34278    -0.16441    25.85145
    99  C   4.0   -0.26    4.05    19.02954    20.40904    46.29829
   100  C   4.0    0.19    3.02    19.86102    19.91771    48.96280
   101  O   6.0   -0.09    1.05    21.52398    18.31144    49.41633
   102  O   6.0   -0.09    1.07    18.89726    21.42949    50.51237
   103  H   1.0    0.08    1.00    20.12558    21.93972    45.50460
   104  H   1.0    0.09    1.00    17.06423    20.86257    46.01483
   105  H   1.0    0.08    1.00    19.44528    18.84057    45.03217
   106  C   4.0   -0.27    4.04    24.92549    40.06219    52.57218
   107  C   4.0    0.18    3.02    26.49396    41.51728    54.49970
   108  O   6.0   -0.11    1.15    26.56955    40.85588    56.74280
   109  O   6.0   -0.08    1.05    27.66559    43.42590    53.63042
   110  H   1.0    0.09    1.00    24.32077    38.36144    53.51704
   111  H   1.0    0.09    1.00    23.39481    41.32831    52.13754
   112  H   1.0    0.09    1.00    25.98373    39.89211    50.87142
   113  C   4.0   -0.23    4.02    27.94905     8.90061    52.49659
   114  C   4.0    0.19    3.01    29.93326     9.95886    54.23513
   115  O   6.0   -0.09    1.07    31.97416     8.76833    54.53749
   116  O   6.0   -0.10    1.08    29.29075    11.86748    55.43889
   117  H   1.0    0.07    0.99    27.11757     7.01088    53.00681
   118  H   1.0    0.06    0.99    28.76163     8.56046    50.53127
   119  H   1.0    0.09    1.00    26.28609    10.03444    52.57218
   120  C   4.0   -0.26    4.03     3.66607     5.99043    41.47948
   121  C   4.0    0.18    3.01     4.15740     5.00777    44.10620
   122  O   6.0   -0.10    1.06     6.23610     5.42351    45.06996
   123  O   6.0   -0.08    1.05     2.45664     3.76055    45.29673
   124  H   1.0    0.09    1.00     5.32903     6.78412    40.68580
   125  H   1.0    0.08    1.00     2.66451     4.89439    40.06219
   126  H   1.0    0.08    1.00     2.32436     7.54001    41.70625
   127  C   4.0   -0.26    4.05    32.59777     0.81258    29.98995
   128  C   4.0    0.19    3.02    34.07176     2.70231    31.36945
   129  O   6.0   -0.10    1.06    36.22605     3.23143    30.70805
   130  O   6.0   -0.09    1.07    33.07020     3.60938    33.33477
   131  H   1.0    0.09    1.00    32.42770     1.51178    28.08133
   132  H   1.0    0.09    1.00    33.59933    -0.93919    29.91436
   133  H   1.0    0.07    1.00    30.78364     0.47243    30.97261
   134  C   4.0   -0.28    4.05    49.43523    10.50688     3.42040
   135  C   4.0    0.21    3.02    50.28561    11.69740     5.83925
   136  O   6.0   -0.08    1.06    52.64399    11.67851     6.23610
   137  O   6.0   -0.12    1.07    48.73603    12.37770     7.33214
   138  H   1.0    0.10    1.01    49.28405    11.96197     2.05980
   139  H   1.0    0.10    1.01    50.87142     9.29745     2.77790
   140  H   1.0    0.07    1.00    47.62109     9.48642     3.60938
   141  C   4.0   -0.24    4.03    27.23095    40.79918    22.41215
   142  C   4.0    0.19    3.02    28.57266    38.51261    21.31611
   143  O   6.0   -0.11    1.06    27.96794    37.68114    19.25631
   144  O   6.0   -0.08    1.06    30.42459    37.68114    22.60112
   145  H   1.0    0.06    0.99    28.38368    42.14089    23.62157
   146  H   1.0    0.08    1.00    26.38057    41.95192    20.95706
   147  H   1.0    0.09    1.00    25.83255    39.96770    23.64047
   148  C   4.0   -0.22    4.02    39.41968    43.38811    45.84475
   149  C   4.0    0.19    3.02    41.68735    43.74716    47.50771
   150  O   6.0   -0.10    1.12    42.91568    41.80074    47.99904
   151  O   6.0   -0.09    1.05    41.93302    45.80696    48.66044
   152  H   1.0    0.07    0.99    38.13467    41.93302    46.73292
   153  H   1.0    0.07    1.00    38.47482    45.27783    46.07152
   154  H   1.0    0.08    1.00    39.77873    43.04796    43.84164
   155  C   4.0   -0.25    4.05    15.68473    34.26073    33.69381
   156  C   4.0    0.20    3.02    14.26743    36.32053    35.07331
   157  O   6.0   -0.09    1.05    12.69896    35.73472    36.75517
   158  O   6.0   -0.11    1.07    14.96663    38.45592    34.54419
   159  H   1.0    0.08    1.00    15.06112    32.33321    34.10955
   160  H   1.0    0.10    1.01    17.61225    34.56309    34.12845
   161  H   1.0    0.07    1.00    15.53355    34.50640    31.61512
   162  C   4.0   -0.24    4.02    11.98086    37.81342    11.47064
   163  C   4.0    0.17    3.02    12.92573    35.67803     9.90216
   164  O   6.0   -0.08    1.06    15.30678    35.31898     9.97775
   165  O   6.0   -0.09    1.08    11.43284    34.29853     8.67384
   166  H   1.0    0.06    0.99    11.39505    39.30630    10.03444
   167  H   1.0    0.11    1.01    10.43129    37.34098    12.56668
   168  H   1.0    0.06    0.99    13.49264    38.92835    12.54778
   169  C   4.0   -0.23    4.02     4.23299    39.77873    48.84942
   170  C   4.0    0.19    3.02     3.47710    41.87633    50.51237
   171  O   6.0   -0.10    1.06     2.68341    41.36610    52.62887
   172  O   6.0   -0.08    1.05     3.62827    44.16290    49.75648
   173  H   1.0    0.08    1.00     2.60782    39.19292    47.75337
   174  H   1.0    0.06    0.98     5.95264    40.27006    47.58330
   175  H   1.0    0.08    1.00     4.53534    38.17246    50.07774
   176  C   4.0   -0.22    4.01    28.10022    22.05310    36.09377
   177  C   4.0    0.19    3.02    27.57110    24.13180    38.09688
   178  O   6.0   -0.11    1.06    28.78053    26.05932    38.04018
   179  O   6.0   -0.09    1.10    25.71917    23.71606    39.58976
   180  H   1.0    0.07    1.00    30.16003    22.20428    35.62133
   181  H   1.0    0.08    1.01    27.94905    20.40904    37.30319
   182  H   1.0    0.06    0.99    26.85301    22.22318    34.33632
   183  C   4.0   -0.26    4.02    51.58952    17.27210    29.66870
   184  C   4.0    0.20    3.01    49.41633    16.13826    28.08133
   185  O   6.0   -0.10    1.06    49.52972    14.02177    27.15536
   186  O   6.0   -0.10    1.16    47.43212    17.44217    27.89236
   187  H   1.0    0.08    1.00    53.02193    18.23586    28.55376
   188  H   1.0    0.09    1.00    50.94701    18.78388    30.82143
   189  H   1.0    0.08    1.00    52.45501    15.85480    30.91592
   190  C   4.0   -0.26    4.05    41.27161    12.75565    20.42794
   191  C   4.0    0.19    3.02    40.02440    10.52577    21.65626
   192  O   6.0   -0.11    1.12    37.71893    10.69585    21.95862
   193  O   6.0   -0.09    1.05    41.29051     8.59825    22.20428
   194  H   1.0    0.08    1.00    43.31252    12.71786    20.52242
   195  H   1.0    0.09    1.00    40.70470    13.03911    18.50042
   196  H   1.0    0.08    1.00    40.79918    14.45640    21.48618
   197  C   4.0   -0.25    4.04    47.67779    16.66738    50.15333
   198  C   4.0    0.19    3.02    47.20535    14.09736    51.13598
   199  O   6.0   -0.09    1.07    45.29673    13.94618    52.51548
   200  O   6.0   -0.10    1.10    48.62265    12.22653    50.77694
   201  H   1.0    0.09    1.00    48.33919    16.44062    48.24470
   202  H   1.0    0.08    1.00    49.07618    17.66894    51.28716
   203  H   1.0    0.07    1.00    45.86365    17.68783    49.86987
   204  C   4.0   -0.25    4.03    48.79272    45.90144     6.14161
   205  C   4.0    0.18    3.01    48.30140    48.74926     5.95264
   206  O   6.0   -0.09    1.06    47.58330    49.69412     7.99354
   207  O   6.0   -0.08    1.04    48.43368    49.93979     3.89284
   208  H   1.0    0.09    1.00    50.13443    45.20224     4.78101
   209  H   1.0    0.10    1.00    49.37854    45.44791     7.99354
   210  H   1.0    0.07    0.99    46.99748    44.80540     5.78256
   211  C   4.0   -0.24    4.02    43.95503    40.74249    23.33812
   212  C   4.0    0.17    3.01    41.66846    42.49994    22.90348
   213  O   6.0   -0.08    1.05    42.02751    44.82430    23.35701
   214  O   6.0   -0.09    1.05    39.60866    41.53618    22.24207
   215  H   1.0    0.07    0.99    45.69357    41.66846    24.11290
   216  H   1.0    0.09    1.00    43.40701    39.19292    24.49085
   217  H   1.0    0.07    1.00    44.48415    39.81653    21.52398
   218  C   4.0   -0.26    4.03    10.28011    21.76964     3.13695
   219  C   4.0    0.18    3.01     8.33369    22.46884     5.14005
   220  O   6.0   -0.11    1.06     9.03289    23.62157     7.01088
   221  O   6.0   -0.08    1.05     6.04712    21.76964     4.72431
   222  H   1.0    0.08    1.00     9.37304    22.35546     1.37950
   223  H   1.0    0.09    1.00    10.43129    19.74764     3.04246
   224  H   1.0    0.09    1.00    12.24542    22.24207     3.38261
   225  C   4.0   -0.23    4.04    23.92393    23.22473    27.41992
   226  C   4.0    0.19    3.02    25.20894    24.81210    25.45461
   227  O   6.0   -0.10    1.06    27.55220    24.79320    25.47351
   228  O   6.0   -0.10    1.09    23.92393    26.04042    23.92393
   229  H   1.0    0.07    1.00    22.12869    24.15070    27.94905
   230  H   1.0    0.08    1.00    23.62157    21.24052    26.87190
   231  H   1.0    0.08    1.00    25.09556    23.26253    29.13957
   232  C   4.0   -0.27    4.05    34.82765    20.04999     1.03935
   233  C   4.0    0.20    3.02    35.13001    22.41215     2.55113
   234  O   6.0   -0.10    1.07    33.29697    22.94127     3.85504
   235  O   6.0   -0.10    1.16    37.34098    23.31922     2.72121
   236  H   1.0    0.11    1.01    36.58509    19.31300     0.60471
   237  H   1.0    0.08    1.00    33.76940    18.55711     2.02201
   238  H   1.0    0.08    1.00    33.84499    20.44683    -0.73132
   239  C   4.0   -0.24    4.03    18.68939    41.85743    49.58641
   240  C   4.0    0.19    3.02    16.08157    41.29051    48.66044
   241  O   6.0   -0.10    1.06    15.59024    41.34720    46.37387
   242  O   6.0   -0.09    1.06    14.43751    40.66690    50.24781
   243  H   1.0    0.07    0.99    20.10668    42.34876    48.09353
   244  H   1.0    0.08    1.00    18.57601    43.65267    50.58796
   245  H   1.0    0.08    1.00    19.35079    40.25116    50.70135
   246  C   4.0   -0.25    4.06     9.33525     9.71319     4.51645
   247  C   4.0    0.21    3.02    11.45174    11.39505     5.17785
   248  O   6.0   -0.10    1.06    11.18718    13.71941     5.19675
   249  O   6.0   -0.12    1.15    13.43595    10.31790     5.61249
   250  H   1.0    0.07    1.00     9.35414     8.67384     2.70231
   251  H   1.0    0.08    1.00     9.29745     8.23921     5.93374
   252  H   1.0    0.08    1.00     7.44552    10.50688     4.47865
   253  C   4.0   -0.25    4.03     4.62983    10.31790    19.25631
   254  C   4.0    0.20    3.01     5.04557    12.77455    17.76342
   255  O   6.0   -0.13    1.36     4.17629    13.02021    15.60914
   256  O   6.0   -0.10    1.24     6.33058    14.39971    19.02954
   257  H   1.0    0.07    1.00     2.62672     9.71319    19.14292
   258  H   1.0    0.09    1.00     5.61249     8.69274    18.61380
   259  H   1.0    0.08    1.00     5.21564    10.62026    21.22162
   260  C   4.0   -0.26    4.04    10.03444    29.80098     2.62672
   261  C   4.0    0.17    3.01     9.42973    31.40725     0.34015
   262  O   6.0   -0.07    1.04    11.33836    32.29542    -0.88250
   263  O   6.0   -0.09    1.05     7.14316    31.78519    -0.01323
   264  H   1.0    0.07    0.99    11.67851    28.45927     2.45664
   265  H   1.0    0.09    1.00    10.37460    31.06709     4.15740
   266  H   1.0    0.09    1.01     8.29590    28.89391     3.06136
   267  C   4.0   -0.24    4.02    51.87298    27.36323    39.68424
   268  C   4.0    0.20    3.01    50.39899    27.76007    37.20870
   269  O   6.0   -0.12    1.27    51.45724    27.45772    35.13001
   270  O   6.0   -0.10    1.16    48.13132    28.40258    37.35988
   271  H   1.0    0.08    1.00    52.53060    29.19627    40.40234
   272  H   1.0    0.08    1.00    50.56907    26.43727    41.00705
   273  H   1.0    0.08    1.00    53.51326    26.22940    39.21181
   274  C   4.0   -0.24    4.02     8.93840    17.38548    46.63844
   275  C   4.0    0.18    3.02    10.37460    17.08312    49.09508
   276  O   6.0   -0.09    1.05    11.24387    14.92883    49.52972
   277  O   6.0   -0.08    1.05    10.45018    19.06733    50.43679
   278  H   1.0    0.11    1.01     7.02978    17.06423    46.95969
   279  H   1.0    0.06    0.98     9.46753    19.38859    45.93924
   280  H   1.0    0.07    0.99     9.59981    15.79811    45.39122
   281  C   4.0   -0.24    4.04    24.81210    26.26719     9.75099
   282  C   4.0    0.20    3.01    25.22784    27.49551    12.32101
   283  O   6.0   -0.10    1.06    27.28764    28.57266    12.66116
   284  O   6.0   -0.11    1.09    23.52709    27.28764    13.87059
   285  H   1.0    0.07    1.00    22.97907    25.20894     9.86437
   286  H   1.0    0.08    1.00    26.26719    24.96328     9.08958
   287  H   1.0    0.08    1.00    24.81210    27.76007     8.35259
   288  C   4.0   -0.26    4.05    52.02416     3.00466    25.22784
   289  C   4.0    0.19    3.01    52.26982     5.65028    24.33967
   290  O   6.0   -0.11    1.06    54.34474     6.61404    24.54754
   291  O   6.0   -0.08    1.05    50.30450     6.72742    23.37591
   292  H   1.0    0.08    1.00    53.51326     1.73855    24.56644
   293  H   1.0    0.09    1.00    51.85408     2.83459    27.24985
   294  H   1.0    0.09    1.00    50.32340     2.17318    24.47195
   295  C   4.0   -0.25    4.04    19.57756     8.76833    52.70446
   296  C   4.0    0.21    3.01    19.57756     7.01088    50.38009
   297  O   6.0   -0.11    1.06    20.12558     7.84236    48.32029
   298  O   6.0   -0.10    1.06    18.97285     4.81880    50.85253
   299  H   1.0    0.09    1.00    17.89570     8.35259    53.76270
   300  H   1.0    0.08    1.00    19.76653    10.75254    52.11864
   301  H   1.0    0.08    1.00    21.18383     8.33369    53.91388
   302  C   4.0   -0.23    4.02    46.95969    24.71762     6.61404
   303  C   4.0    0.18    3.01    47.98014    24.73651     3.96842
   304  O   6.0   -0.09    1.05    46.82741    25.92704     2.28657
   305  O   6.0   -0.08    1.05    49.83207    23.30032     3.43930
   306  H   1.0    0.08    1.00    48.11242    23.48929     7.80457
   307  H   1.0    0.07    1.00    44.91879    24.28298     6.57625
   308  H   1.0    0.07    0.99    47.24315    26.58844     7.57780
   309  C   4.0   -0.27    4.04     8.54156    24.84990    12.71786
   310  C   4.0    0.18    3.02    10.28011    24.58533    14.92883
   311  O   6.0   -0.10    1.11    12.22653    23.22473    14.77766
   312  O   6.0   -0.09    1.06     9.61871    25.62468    16.96974
   313  H   1.0    0.09    1.00     9.50532    26.05932    11.39505
   314  H   1.0    0.09    1.00     6.74632    25.71917    13.07690
   315  H   1.0    0.09    1.00     8.06913    23.05466    11.90527
   316  C   4.0   -0.24    4.04    47.86676    33.69381     4.38416
   317  C   4.0    0.20    3.02    48.22581    35.48905     6.50066
   318  O   6.0   -0.11    1.10    46.46836    35.75361     7.99354
   319  O   6.0   -0.10    1.06    50.30450    36.49061     6.87860
   320  H   1.0    0.09    1.00    49.45413    33.78830     3.13695
   321  H   1.0    0.07    1.00    47.92345    31.80409     5.29123
   322  H   1.0    0.07    1.00    46.10931    34.18514     3.32592
   323  C   4.0   -0.29    4.04     5.29123    30.00885    15.59024
   324  C   4.0    0.17    3.02     2.64562    30.21672    14.70207
   325  O   6.0   -0.08    1.04     1.36060    32.25762    14.58868
   326  O   6.0   -0.09    1.20     1.54958    28.11912    14.15405
   327  H   1.0    0.11    1.01     5.23454    28.72383    17.08312
   328  H   1.0    0.10    1.00     6.70853    29.53642    14.28633
   329  H   1.0    0.08    1.00     5.80146    31.86078    16.36503
   330  C   4.0   -0.28    4.03     1.77634    45.10776    29.61201
   331  C   4.0    0.20    3.02     1.98421    42.32986    28.91281
   332  O   6.0   -0.10    1.07     4.02512    41.59287    28.06243
   333  O   6.0   -0.11    1.13     0.32125    40.78029    29.46083
   334  H   1.0    0.11    1.00     2.98577    46.27939    28.62935
   335  H   1.0    0.07    1.00     1.92752    45.29673    31.69070
   336  H   1.0    0.09    1.00    -0.10960    45.58019    29.00729
   337  C   4.0   -0.28    4.05    49.85097     4.00622    37.03863
   338  C   4.0    0.19    3.02    50.96591     2.87238    34.69537
   339  O   6.0   -0.09    1.05    50.22892     3.45820    32.52218
   340  O   6.0   -0.10    1.07    52.66288     1.32281    35.13001
   341  H   1.0    0.09    1.01    48.24470     2.83459    37.41657
   342  H   1.0    0.08    1.00    49.13287     5.95264    36.96304
   343  H   1.0    0.11    1.01    51.17378     4.00622    38.47482
   344  C   4.0   -0.25    4.02    51.32496    41.76294    22.33656
   345  C   4.0    0.17    3.01    52.08085    41.95192    19.59646
   346  O   6.0   -0.08    1.05    50.60686    41.08264    17.87681
   347  O   6.0   -0.09    1.05    54.04238    43.18024    19.06733
   348  H   1.0    0.08    1.00    50.90922    43.52039    23.35701
   349  H   1.0    0.10    1.00    49.79428    40.49683    22.52553
   350  H   1.0    0.07    1.00    52.85186    40.89367    23.48929
   351  C   4.0   -0.23    4.05    39.53307    30.02775    32.71116
   352  C   4.0    0.20    3.02    38.21026    31.25607    34.88434
   353  O   6.0   -0.11    1.13    37.39768    29.80098    36.54730
   354  O   6.0   -0.10    1.07    37.98349    33.58043    34.69537
   355  H   1.0    0.09    1.00    39.92991    31.06709    31.01040
   356  H   1.0    0.07    0.99    38.45592    28.32699    31.99306
   357  H   1.0    0.08    1.00    41.42279    29.46083    33.37256
   358  C   4.0   -0.21    4.01    36.94414    29.49862    15.76031
   359  C   4.0    0.20    3.01    37.22760    26.90970    17.06423
   360  O   6.0   -0.11    1.06    35.56464    25.90814    18.27365
   361  O   6.0   -0.09    1.06    39.30630    25.77586    16.68628
   362  H   1.0    0.07    0.99    35.33788    29.49862    14.38081
   363  H   1.0    0.08    1.00    36.45281    31.02930    17.08312
   364  H   1.0    0.06    0.99    38.49372    29.97105    14.36192
   365  C   4.0   -0.27    4.05    41.97081    34.29853    21.01375
   366  C   4.0    0.20    3.02    40.91257    33.29697    23.45150
   367  O   6.0   -0.12    1.26    38.89056    32.08755    23.31922
   368  O   6.0   -0.10    1.06    42.14089    33.63712    25.41681
   369  H   1.0    0.09    1.00    42.34876    32.73005    19.76653
   370  H   1.0    0.09    1.00    40.53462    35.58354    20.35235
   371  H   1.0    0.09    1.00    43.52039    35.56464    21.25942
   372  C   4.0   -0.30    4.06    36.81186    15.53355     6.16051
   373  C   4.0    0.20    3.03    38.09688    14.58868     8.42818
   374  O   6.0   -0.10    1.08    39.19292    12.52888     8.08803
   375  O   6.0   -0.11    1.06    38.19136    15.79811    10.39349
   376  H   1.0    0.07    1.00    34.84655    14.77766     6.12271
   377  H   1.0    0.12    1.01    36.69848    17.46107     6.36838
   378  H   1.0    0.10    1.01    37.83231    15.08001     4.53534
   379  C   4.0   -0.25    4.03     0.39684    37.62444    38.36144
   380  C   4.0    0.19    3.01     2.79679    38.13467    39.85432
   381  O   6.0   -0.10    1.05     4.78101    36.94414    39.49527
   382  O   6.0   -0.09    1.06     2.55113    39.91101    41.40390
   383  H   1.0    0.08    1.00     0.51023    38.34254    36.43392
   384  H   1.0    0.08    1.00    -0.18519    35.64023    38.17246
   385  H   1.0    0.09    1.00    -1.28123    38.45592    39.11733
   386  C   4.0   -0.25    4.02    27.17426    42.38655    29.81988
   387  C   4.0    0.19    3.01    26.00263    43.74716    32.12534
   388  O   6.0   -0.11    1.05    24.20739    45.14555    31.86078
   389  O   6.0   -0.09    1.11    27.02308    43.33142    34.27963
   390  H   1.0    0.10    1.00    26.39947    40.70470    29.06399
   391  H   1.0    0.07    1.00    26.94749    43.70936    28.21361
   392  H   1.0    0.07    1.00    29.21516    42.08420    30.16003
   393  C   4.0   -0.18    4.00    27.55220     2.41885    12.15094
   394  C   4.0    0.17    3.01    28.70494     4.17629    10.29901
   395  O   6.0   -0.08    1.05    30.06554     5.99043    11.09269
   396  O   6.0   -0.09    1.06    28.17581     3.62827     8.05023
   397  H   1.0    0.06    0.99    28.72383     2.79679    13.94618
   398  H   1.0    0.06    0.98    25.43571     2.85349    12.47219
   399  H   1.0    0.06    0.98    27.57110     0.30236    11.62181
   400  C   4.0   -0.24    4.04    29.55531    15.08001    49.66200
   401  C   4.0    0.17    3.02    30.48128    17.15871    47.98014
   402  O   6.0   -0.09    1.12    31.72850    18.93505    49.01949
   403  O   6.0   -0.09    1.06    29.83877    16.95084    45.69357
   404  H   1.0    0.07    0.99    30.61356    14.89104    51.47613
   405  H   1.0    0.08    1.00    27.62779    15.26899    50.34230
   406  H   1.0    0.08    1.00    29.61201    13.26588    48.67934
   407  C   4.0   -0.24    4.02    42.76450    18.93505    13.49264
   408  C   4.0    0.21    3.00    45.73137    18.70829    13.45485
   409  O   6.0   -0.11    1.06    46.77072    17.49886    15.09891
   410  O   6.0   -0.10    1.06    46.95969    19.97440    11.94307
   411  H   1.0    0.08    1.00    41.98971    18.23586    11.73520
   412  H   1.0    0.08    1.00    42.17868    20.91927    13.70051
   413  H   1.0    0.08    1.00    42.08420    17.76342    15.06112
   414  C   4.0   -0.25    4.03    12.32101    25.92704    40.17557
   415  C   4.0    0.19    3.01    12.86903    25.92704    37.32209
   416  O   6.0   -0.10    1.05    11.07379    26.36168    35.86700
   417  O   6.0   -0.10    1.06    15.08001    25.45461    36.73627
   418  H   1.0    0.09    1.00    12.05645    24.13180    41.06374
   419  H   1.0    0.08    1.00    13.62492    27.11757    41.21492
   420  H   1.0    0.07    0.99    10.52577    26.85301    40.78029
   421  C   4.0   -0.23    4.05    12.16984    13.05801    31.95527
   422  C   4.0    0.21    3.02    10.03444    11.94307    30.51907
   423  O   6.0   -0.09    1.06     9.67540     9.61871    30.42459
   424  O   6.0   -0.12    1.13     8.71164    13.49264    29.47972
   425  H   1.0    0.07    0.99    12.32101    15.15560    31.55842
   426  H   1.0    0.08    1.00    11.81079    13.09580    33.97727
   427  H   1.0    0.08    1.00    13.94618    12.15094    31.36945
   428  C   4.0   -0.22    4.03    14.83435     4.95108    29.21516
   429  C   4.0    0.18    3.01    15.74142     2.94797    27.38213
   430  O   6.0   -0.09    1.05    14.85325     0.77479    27.66559
   431  O   6.0   -0.09    1.05    17.38548     3.60938    25.79476
   432  H   1.0    0.07    1.00    15.11781     4.25188    31.18048
   433  H   1.0    0.08    1.00    15.98708     6.63294    28.81832
   434  H   1.0    0.07    0.99    12.77455     5.38572    28.95060
   435  C   4.0   -0.24    4.01    14.96663    46.80851    33.92058
   436  C   4.0    0.16    3.01    15.02332    47.67779    36.71738
   437  O   6.0   -0.08    1.04    13.02021    47.39433    38.02129
   438  O   6.0   -0.08    1.04    17.12092    48.57918    37.49216
   439  H   1.0    0.09    1.00    16.19495    47.82896    32.67336
   440  H   1.0    0.06    0.99    12.88793    46.61954    33.39146
   441  H   1.0    0.08    1.00    15.66583    44.88099    33.92058
   442  C   4.0   -0.28    4.06    33.56153    27.68449    53.97057
   443  C   4.0    0.19    3.02    33.46705    30.04664    52.47769
   444  O   6.0   -0.09    1.06    33.37256    32.06865    53.66822
   445  O   6.0   -0.10    1.14    33.08910    29.72539    50.15333
   446  H   1.0    0.07    0.99    32.40880    26.02153    53.36586
   447  H   1.0    0.09    1.01    35.48905    27.13646    53.95168
   448  H   1.0    0.11    1.01    33.33477    27.89236    55.89242
   449  C   4.0   -0.23    4.03    21.78854    36.52840    47.12977
   450  C   4.0    0.19    3.03    21.92082    34.46860    45.25894
   451  O   6.0   -0.14    1.52    23.92393    34.24183    44.04951
   452  O   6.0   -0.08    1.20    19.93661    33.01351    44.95658
   453  H   1.0    0.07    1.00    23.84834    37.00083    47.39433
   454  H   1.0    0.07    0.99    20.93816    35.88590    48.96280
   455  H   1.0    0.08    1.00    20.73029    38.15357    46.48726
   456  C   4.0   -0.24    4.03    23.39481    35.09221    26.90970
   457  C   4.0    0.19    3.03    23.47040    33.71271    29.36634
   458  O   6.0   -0.12    1.24    22.24207    31.74740    29.49862
   459  O   6.0   -0.10    1.23    24.71762    34.60088    31.25607
   460  H   1.0    0.08    1.00    24.39636    36.90635    27.11757
   461  H   1.0    0.09    1.01    24.41526    33.93948    25.60579
   462  H   1.0    0.06    0.99    21.41060    35.54575    26.22940
   463  C   4.0   -0.25    4.03    27.15536    16.47841    31.93637
   464  C   4.0    0.20    3.02    25.96483    14.66427    33.78830
   465  O   6.0   -0.09    1.06    26.77742    14.66427    36.01818
   466  O   6.0   -0.13    1.26    24.32077    13.24698    32.99462
   467  H   1.0    0.09    1.01    27.89236    15.17450    30.57577
   468  H   1.0    0.10    1.00    28.61045    17.55555    32.78675
   469  H   1.0    0.06    0.99    25.56799    17.59335    30.95371
   470  C   4.0   -0.22    4.05    38.72048    17.85791    30.14113
   471  C   4.0    0.19    3.02    37.43547    20.25786    30.65135
   472  O   6.0   -0.09    1.05    38.62600    22.26097    30.99151
   473  O   6.0   -0.09    1.08    35.09221    20.03110    30.51907
   474  H   1.0    0.07    0.99    40.81808    18.06578    29.91436
   475  H   1.0    0.07    1.00    38.15357    16.98864    28.32699
   476  H   1.0    0.07    0.99    38.55041    16.59179    31.84188
   477  C   4.0   -0.23    4.01    15.70362    16.44062    25.83255
   478  C   4.0    0.21    3.01    15.32568    19.19962    26.79631
   479  O   6.0   -0.09    1.06    13.45485    19.69094    28.17581
   480  O   6.0   -0.12    1.07    16.81856    20.78699    26.21050
   481  H   1.0    0.07    0.99    14.94773    14.90994    27.09867
   482  H   1.0    0.06    0.99    14.68317    16.27054    23.96173
   483  H   1.0    0.10    1.01    17.68783    16.17605    25.81366
   484  C   4.0   -0.24    4.03    24.94438    19.69094    10.46908
   485  C   4.0    0.20    3.02    22.31766    19.76653     9.41084
   486  O   6.0   -0.09    1.07    20.48463    19.78543    10.92262
   487  O   6.0   -0.11    1.06    21.93972    19.69094     7.14316
   488  H   1.0    0.08    1.00    25.54909    17.74453    10.90372
   489  H   1.0    0.08    1.00    26.26719    20.39014     9.03289
   490  H   1.0    0.08    1.00    24.96328    20.86257    12.15094
   491  C   4.0   -0.26    4.03     5.48021     2.96687    17.30989
   492  C   4.0    0.19    3.01     7.52111     2.13539    15.49575
   493  O   6.0   -0.09    1.05     7.06758     1.75745    13.19029
   494  O   6.0   -0.10    1.06     9.65650     1.98421    16.44062
   495  H   1.0    0.11    1.00     6.17940     3.11805    19.14292
   496  H   1.0    0.07    1.00     4.70542     4.78101    16.61069
   497  H   1.0    0.07    0.99     3.85504     1.64406    17.40438
   498  C   4.0   -0.28    4.03    47.18646    20.54132    43.70936
   499  C   4.0    0.19    3.01    44.40856    20.01220    43.25583
   500  O   6.0   -0.09    1.06    42.95347    21.73185    42.55663
   501  O   6.0   -0.10    1.06    43.65267    17.82012    43.44480
   502  H   1.0    0.09    1.00    48.09353    19.25631    44.97548
   503  H   1.0    0.07    1.00    48.28250    20.67360    41.93302
   504  H   1.0    0.11    1.01    47.39433    22.29877    44.52194
   505  C   4.0   -0.24    4.04    10.96041     0.51023    55.12331
   506  C   4.0    0.20    3.01     9.05179     2.28657    56.19478
   507  O   6.0   -0.09    1.06     7.31324     1.24722    57.40421
   508  O   6.0   -0.11    1.23     9.29745     4.61093    55.91132
   509  H   1.0    0.08    1.00    11.73520    -0.63684    56.66721
   510  H   1.0    0.08    1.00     9.92106    -0.69353    53.78160
   511  H   1.0    0.08    1.00    12.49109     1.53068    54.21624
   512  C   4.0   -0.26    4.05    10.05334    37.09532    28.25140
   513  C   4.0    0.21    3.02    11.18718    35.48905    26.26719
   514  O   6.0   -0.10    1.07    13.41705    35.92369    25.68138
   515  O   6.0   -0.11    1.07    10.03444    33.65602    25.51130
   516  H   1.0    0.07    1.00     8.10692    36.47171    28.68604
   517  H   1.0    0.09    1.00    11.20607    37.07642    29.93326
   518  H   1.0    0.09    1.01    10.01555    38.96615    27.51441
   519  C   4.0   -0.25    4.04    51.00370    23.94283    27.26875
   520  C   4.0    0.19    3.01    52.56840    25.01997    25.15225
   521  O   6.0   -0.10    1.11    52.36053    23.94283    23.05466
   522  O   6.0   -0.09    1.05    54.26915    26.56955    25.68138
   523  H   1.0    0.08    1.00    50.75804    21.90192    27.11757
   524  H   1.0    0.08    1.00    51.92967    24.30188    29.08288
   525  H   1.0    0.09    1.00    49.11398    24.69872    27.15536
   526  C   4.0   -0.23    4.03    43.36921    44.71092    38.66379
   527  C   4.0    0.18    3.02    42.99127    43.02906    36.50951
   528  O   6.0   -0.08    1.06    44.71092    41.42279    35.98038
   529  O   6.0   -0.10    1.12    40.93146    43.10465    35.33788
   530  H   1.0    0.08    1.00    44.97548    45.90144    38.24805
   531  H   1.0    0.08    1.00    41.63066    45.80696    38.98505
   532  H   1.0    0.06    0.99    43.97392    43.78495    40.51572
   533  C   4.0   -0.25    4.02    23.16804    45.75027     8.22031
   534  C   4.0    0.18    3.02    23.60268    44.76761    10.84703
   535  O   6.0   -0.09    1.06    21.86413    45.12666    12.45329
   536  O   6.0   -0.10    1.11    25.58689    43.59598    11.35725
   537  H   1.0    0.06    0.99    21.08934    46.26049     7.99354
   538  H   1.0    0.08    1.00    24.18849    47.48881     7.78567
   539  H   1.0    0.10    1.00    23.62157    44.33297     6.89750
   540  C   4.0   -0.22    4.03    13.41705    43.99282    14.94773
   541  C   4.0    0.20    3.03    13.00131    42.19758    17.04533
   542  O   6.0   -0.10    1.09    10.75254    41.63066    17.53666
   543  O   6.0   -0.11    1.19    14.79655    41.36610    18.29255
   544  H   1.0    0.08    1.00    12.79344    42.91568    13.28477
   545  H   1.0    0.06    0.99    12.03755    45.58019    15.36347
   546  H   1.0    0.07    1.00    15.47686    44.42746    14.83435
   547  C   4.0   -0.27    4.05    15.17450    16.47841    41.91412
   548  C   4.0    0.20    3.03    15.13670    14.32412    40.09998
   549  O   6.0   -0.12    1.11    17.02643    13.05801    39.92991
   550  O   6.0   -0.09    1.11    13.13360    13.98397    38.81497
   551  H   1.0    0.07    1.00    13.22808    17.23430    41.80074
   552  H   1.0    0.09    1.01    16.62959    17.66894    41.19603
   553  H   1.0    0.10    1.00    15.59024    15.91149    43.78495
   554  C   4.0   -0.27    4.06    39.24961    11.47064    39.68424
   555  C   4.0    0.20    3.02    40.32675    12.43440    37.28429
   556  O   6.0   -0.12    1.26    42.63222    12.15094    37.03863
   557  O   6.0   -0.09    1.06    38.90946    13.54934    35.75361
   558  H   1.0    0.09    1.00    39.19292     9.44863    39.49527
   559  H   1.0    0.09    1.01    40.47793    11.96197    41.19603
   560  H   1.0    0.08    1.00    37.37878    12.11314    40.28896
   561  C   4.0   -0.23    4.11    50.21002    40.02440     1.26612
   562  N   5.0   -0.25    4.00    48.26360    40.76139    -0.69353
   563  H   1.0    0.09    1.00    52.04305    39.72204     0.49133
   564  H   1.0    0.09    1.00    50.13443    41.59287     2.55113
   565  H   1.0    0.11    1.01    49.68090    38.34254     2.11649
   566  C   4.0   -0.20    4.07    49.05729    43.14244    -2.14862
   567  H   1.0    0.06    0.98    49.15177    44.74871    -0.67463
   568  H   1.0    0.08    1.00    51.00370    42.99127    -2.82892
   569  H   1.0    0.12    1.00    48.09353    43.80385    -3.67930
   570  C   4.0   -0.18    4.07    47.96124    38.51261    -2.56436
   571  H   1.0    0.05    0.97    46.46836    38.89056    -4.15173
   572  H   1.0    0.07    0.99    47.65889    36.71738    -1.48721
   573  H   1.0    0.12    1.00    49.58641    38.47482    -3.62260
   574  C   4.0   -0.12    4.15    45.76916    41.21492     0.60471
   575  H   1.0    0.09    1.01    46.16600    42.78340     1.87083
   576  H   1.0    0.10    1.01    45.05107    39.83542     1.85193
   577  C   4.0   -0.10    4.01    43.33142    41.64956    -0.97699
   578  H   1.0    0.08    1.00    43.70936    43.33142    -2.11082
   579  H   1.0    0.07    1.00    42.99127    40.02440    -2.26200
   580  O   6.0   -0.12    1.97    41.40390    42.10309     0.71810
   581  H   1.0    0.08    1.10    40.38344    43.87944     0.49133
   582  C   4.0   -0.13    4.01    45.73137     8.40928    26.87190
   583  N   5.0   -0.24    3.97    44.01172     9.99665    28.72383
   584  H   1.0    0.05    0.98    46.26049     6.70853    28.19471
   585  H   1.0    0.05    0.97    47.63999     9.50532    26.49396
   586  H   1.0    0.07    0.99    45.27783     7.86126    24.90659
   587  C   4.0   -0.20    4.14    43.48259    12.47219    27.38213
   588  H   1.0    0.09    1.00    42.85898    13.92728    28.64825
   589  H   1.0    0.09    1.00    45.18335    13.24698    26.55065
   590  H   1.0    0.09    1.00    42.23537    12.73675    25.79476
   591  C   4.0   -0.17    4.10    41.57397     8.74943    29.12068
   592  H   1.0    0.06    0.98    40.08109     9.95886    30.19782
   593  H   1.0    0.09    1.00    40.89367     8.44707    27.21205
   594  H   1.0    0.11    1.01    42.00861     7.02978    29.97105
   595  C   4.0   -0.17    4.08    45.29673    10.80923    31.36945
   596  H   1.0    0.10    1.01    44.27628    12.33991    32.14424
   597  H   1.0    0.12    1.01    47.09197    11.48953    31.12379
   598  C   4.0   -0.12    4.03    45.56129     8.93840    33.63712
   599  H   1.0    0.10    1.01    43.61487     8.50377    33.80720
   600  H   1.0    0.07    1.00    46.37387     7.19986    32.74895
   601  O   6.0   -0.13    1.99    46.60064    10.20452    35.77251
   602  H   1.0    0.09    1.18    44.82430    10.82813    36.37722
   603  C   4.0   -0.13    4.12     0.49133    29.91436     7.78567
   604  N   5.0   -0.25    3.99     2.70231    29.72539     6.14161
   605  H   1.0    0.06    0.99    -0.97888    31.42614     7.31324
   606  H   1.0    0.08    1.00     0.86927    30.46238     9.75099
   607  H   1.0    0.06    0.99    -0.58204    28.04353     7.72898
   608  C   4.0   -0.16    4.07     4.06291    27.30654     7.10537
   609  H   1.0    0.11    1.00     5.68808    27.07977     6.00933
   610  H   1.0    0.05    0.96     3.04246    25.32233     6.84081
   611  H   1.0    0.06    0.99     4.79990    27.55220     9.10848
   612  C   4.0   -0.24    4.08     1.94642    29.29075     3.34481
   613  H   1.0    0.14    1.00     0.68030    27.91125     3.11805
   614  H   1.0    0.10    1.00     0.85038    30.84033     2.77790
   615  H   1.0    0.06    0.99     3.70386    29.32855     2.07870
   616  C   4.0   -0.13    4.11     4.30858    32.14424     6.29279
   617  H   1.0    0.07    1.01     3.08025    33.80720     5.83925
   618  H   1.0    0.12    1.01     5.87705    32.27652     5.15895
   619  C   4.0   -0.10    4.04     5.12116    33.20248     8.86281
   620  H   1.0    0.07    1.00     6.27389    31.80409     9.93996
   621  H   1.0    0.09    1.00     3.59048    33.50484    10.16673
   622  O   6.0   -0.17    2.02     6.70853    35.18670     8.52266
   623  H   1.0    0.11    1.04     8.39038    34.31742     8.37149
   624  C   4.0   -0.12    4.11    17.95240    28.93170     9.92106
   625  N   5.0   -0.26    4.01    16.17605    27.00418     8.78723
   626  H   1.0    0.05    0.97    20.06889    28.32699     9.56201
   627  H   1.0    0.08    1.00    18.02799    29.06399    11.99976
   628  H   1.0    0.06    0.98    17.78232    30.99151     9.14627
   629  C   4.0   -0.26    4.11    15.94929    24.47195    10.14783
   630  H   1.0    0.10    1.00    14.51310    23.43260     9.24076
   631  H   1.0    0.09    1.00    17.53666    23.24363     9.84547
   632  H   1.0    0.13    1.01    15.17450    24.60423    11.88638
   633  C   4.0   -0.16    4.20    13.71941    28.32699     9.29745
   634  H   1.0    0.11    1.00    13.22808    28.38368    11.20607
   635  H   1.0    0.07    0.99    12.18873    27.28764     8.22031
   636  H   1.0    0.05    0.97    13.32257    30.44349     8.69274
   637  C   4.0   -0.08    4.13    16.42172    26.79631     5.99043
   638  H   1.0    0.06    0.99    14.72097    25.66248     5.23454
   639  H   1.0    0.08    1.00    15.85480    28.51596     5.00777
   640  C   4.0   -0.12    3.99    18.91616    25.83255     4.70542
   641  H   1.0    0.10    1.00    19.42638    24.09401     5.53690
   642  H   1.0    0.06    0.99    20.78699    26.77742     5.15895
   643  O   6.0   -0.12    1.98    18.31144    25.87035     2.02201
   644  H   1.0    0.08    0.97    19.76653    26.89080     1.13384
   645  C   4.0   -0.17    4.12    35.26229     9.10848    32.82454
   646  N   5.0   -0.23    3.97    33.03241    10.94151    32.93792
   647  H   1.0    0.09    1.00    37.05753     9.69429    33.58043
   648  H   1.0    0.08    1.00    35.65913     7.97464    31.12379
   649  H   1.0    0.07    0.99    34.84655     7.65339    34.35522
   650  C   4.0   -0.16    4.13    32.55998    11.24387    35.65913
   651  H   1.0    0.07    1.00    32.16314     9.37304    36.54730
   652  H   1.0    0.08    1.00    30.91592    12.47219    36.01818
   653  H   1.0    0.08    1.00    34.24183    11.98086    36.58509
   654  C   4.0   -0.15    4.01    34.01507    13.51154    31.59622
   655  H   1.0    0.07    0.99    35.65913    14.47530    32.55998
   656  H   1.0    0.06    0.99    34.90324    12.86903    29.72539
   657  H   1.0    0.07    0.99    32.48439    14.96663    31.44504
   658  C   4.0   -0.14    4.10    30.57577     9.78878    31.70960
   659  H   1.0    0.08    1.01    29.13957    11.26277    31.53953
   660  H   1.0    0.11    1.02    29.98995     8.12582    32.57888
   661  C   4.0   -0.12    4.01    30.65135     8.74943    29.04509
   662  H   1.0    0.06    0.98    31.67181    10.31790    27.89236
   663  H   1.0    0.11    1.01    31.97416     7.35103    28.76163
   664  O   6.0   -0.11    1.95    28.15692     8.10692    28.32699
   665  H   1.0    0.07    1.09    28.19471     6.34948    27.21205
   666  C   4.0   -0.16    4.09    36.16935     9.25966    14.77766
   667  N   5.0   -0.25    4.00    34.24183    11.33836    15.40127
   668  H   1.0    0.06    0.99    37.15201     8.57936    16.59179
   669  H   1.0    0.07    0.99    35.41346     7.50221    13.88949
   670  H   1.0    0.09    1.00    37.51106    10.12893    13.51154
   671  C   4.0   -0.19    4.08    35.60244    13.62492    16.40282
   672  H   1.0    0.07    0.99    37.17091    14.09736    15.06112
   673  H   1.0    0.14    1.01    36.26384    13.39816    18.16027
   674  H   1.0    0.05    0.98    34.10955    15.25009    16.64849
   675  C   4.0   -0.14    4.10    32.73005    11.88638    13.07690
   676  H   1.0    0.07    0.99    31.27496    13.37926    13.49264
   677  H   1.0    0.08    1.00    33.95838    12.60447    11.54623
   678  H   1.0    0.07    0.99    31.78519    10.14783    12.24542
   679  C   4.0   -0.08    4.10    32.35211    10.33680    17.42327
   680  H   1.0    0.06    0.99    33.82609    10.07224    19.01064
   681  H   1.0    0.07    1.00    31.06709    11.79189    18.27365
   682  C   4.0   -0.15    4.02    30.34900     8.29590    17.17761
   683  H   1.0    0.10    1.01    28.96950     8.71164    15.77921
   684  H   1.0    0.10    1.01    31.21827     6.57625    16.64849
   685  O   6.0   -0.13    1.99    28.95060     7.99354    19.48307
   686  H   1.0    0.09    1.01    28.96950     6.08492    19.99330
   687  C   4.0   -0.19    4.11    31.18048    34.67647    41.80074
   688  N   5.0   -0.25    4.00    30.99151    34.99772    38.89056
   689  H   1.0    0.05    0.97    31.53953    32.65446    42.65111
   690  H   1.0    0.13    1.00    32.61667    35.43236    42.82119
   691  H   1.0    0.07    0.99    29.66870    35.71582    42.85898
   692  C   4.0   -0.23    4.13    33.10800    33.58043    37.75672
   693  H   1.0    0.08    1.00    33.20248    31.57732    38.19136
   694  H   1.0    0.12    1.01    33.54264    33.44815    35.88590
   695  H   1.0    0.10    1.00    34.82765    34.16625    38.62600
   696  C   4.0   -0.14    4.09    28.47817    33.56153    38.36144
   697  H   1.0    0.06    0.98    27.79787    33.52374    36.30164
   698  H   1.0    0.07    0.99    26.90970    34.48750    39.45748
   699  H   1.0    0.07    1.00    28.89391    31.65291    39.17402
   700  C   4.0   -0.07    4.10    30.89702    37.75672    38.19136
   701  H   1.0    0.08    1.01    32.71116    38.56931    38.75828
   702  H   1.0    0.06    0.98    29.46083    38.72048    39.58976
   703  C   4.0   -0.12    4.03    30.59466    38.56931    35.50795
   704  H   1.0    0.10    1.01    28.87501    38.11577    34.58198
   705  H   1.0    0.08    1.01    32.16314    37.75672    34.44970
   706  O   6.0   -0.16    2.03    31.08599    41.12044    35.31898
   707  H   1.0    0.11    1.05    29.72539    42.32986    34.73316
   708  C   4.0   -0.16    4.16    39.32520    37.68114    39.55196
   709  N   5.0   -0.27    4.02    41.15823    36.01818    40.89367
   710  H   1.0    0.06    0.98    38.47482    36.83076    37.70003
   711  H   1.0    0.08    1.00    37.90790    38.39923    40.91257
   712  H   1.0    0.10    1.00    40.15668    39.43858    39.07953
   713  C   4.0   -0.19    4.15    42.21648    37.56775    42.99127
   714  H   1.0    0.07    0.99    43.08575    39.38189    42.36766
   715  H   1.0    0.11    1.00    40.96926    38.22916    44.37077
   716  H   1.0    0.08    1.00    43.70936    36.50951    43.97392
   717  C   4.0   -0.18    4.13    39.51417    33.92058    41.93302
   718  H   1.0    0.08    1.00    40.89367    33.05131    43.23693
   719  H   1.0    0.10    1.00    38.68269    32.65446    40.62911
   720  H   1.0    0.07    0.99    37.90790    34.39301    43.25583
   721  C   4.0   -0.06    4.09    43.25583    35.16780    39.15512
   722  H   1.0    0.07    1.00    44.37077    36.83076    38.43703
   723  H   1.0    0.05    0.97    42.48104    34.44970    37.17091
   724  C   4.0   -0.10    4.01    45.27783    33.24028    39.96770
   725  H   1.0    0.09    1.01    45.73137    34.14735    41.72515
   726  H   1.0    0.07    0.99    44.63533    31.35055    40.72359
   727  O   6.0   -0.14    2.00    47.14866    32.97572    38.13467
   728  H   1.0    0.09    1.08    47.43212    31.06709    37.70003
   729  C   4.0   -0.15    4.13     0.75589     5.74477     9.20297
   730  N   5.0   -0.25    3.99     3.47710     5.55579     8.42818
   731  H   1.0    0.07    0.99    -0.60093     4.45975     8.23921
   732  H   1.0    0.07    1.00     0.00000     7.61560     8.63605
   733  H   1.0    0.07    0.99     0.39684     5.53690    11.26277
   734  C   4.0   -0.14    4.11     4.10071     2.77790     8.48487
   735  H   1.0    0.07    0.99     3.36371     1.92752    10.29901
   736  H   1.0    0.08    1.00     2.98577     1.56847     7.23765
   737  H   1.0    0.06    0.98     6.23610     2.58892     8.08803
   738  C   4.0   -0.13    4.04     3.79835     6.34948     5.66918
   739  H   1.0    0.04    0.94     2.04090     5.44241     4.47865
   740  H   1.0    0.09    1.00     5.66918     6.33058     4.85660
   741  H   1.0    0.07    0.99     3.34481     8.42818     5.83925
   742  C   4.0   -0.15    4.08     4.98888     7.21875    10.37460
   743  H   1.0    0.06    0.99     7.12427     7.04868    10.05334
   744  H   1.0    0.14    1.01     4.85660     6.57625    12.15094
   745  C   4.0   -0.10    4.01     4.72431    10.14783    10.35570
   746  H   1.0    0.10    1.01     2.91018    10.86592    10.73364
   747  H   1.0    0.06    0.99     5.12116    10.99821     8.39038
   748  O   6.0   -0.12    1.93     6.36838    11.26277    11.99976
   749  H   1.0    0.07    1.23     5.06447    12.01866    13.47375
   750  C   4.0   -0.16    4.13    35.35677    18.67049    37.26540
   751  N   5.0   -0.28    4.02    35.22449    19.59646    39.96770
   752  H   1.0    0.09    1.00    34.86544    16.76187    36.71738
   753  H   1.0    0.06    0.98    37.22760    19.29410    36.32053
   754  H   1.0    0.08    1.00    33.65602    19.52087    36.45281
   755  C   4.0   -0.17    4.19    33.08910    18.51931    41.27161
   756  H   1.0    0.11    1.00    32.61667    18.95395    43.14244
   757  H   1.0    0.09    1.00    33.25918    16.47841    41.21492
   758  H   1.0    0.07    0.99    31.35055    19.16182    40.17557
   759  C   4.0   -0.16    4.19    37.45437    18.46262    41.25272
   760  H   1.0    0.09    1.00    38.09688    16.53510    40.96926
   761  H   1.0    0.07    0.99    39.40079    19.12403    40.66690
   762  H   1.0    0.08    1.00    37.64334    19.14292    43.21803
   763  C   4.0   -0.11    4.17    35.24339    22.46884    40.09998
   764  H   1.0    0.08    1.00    33.56153    23.20583    39.07953
   765  H   1.0    0.10    1.01    35.13001    22.86568    42.06530
   766  C   4.0   -0.11    4.02    37.43547    23.92393    39.00394
   767  H   1.0    0.08    1.00    37.79452    23.64047    37.00083
   768  H   1.0    0.08    1.00    39.17402    23.48929    40.02440
   769  O   6.0   -0.13    2.02    36.94414    26.34278    39.94881
   770  H   1.0    0.08    1.03    37.11422    27.77897    38.55041
   771  C   4.0   -0.25    4.14     3.13695    34.99772    20.71140
   772  N   5.0   -0.26    4.01     2.75900    32.78675    22.46884
   773  H   1.0    0.11    1.00     1.62516    36.22605    20.40904
   774  H   1.0    0.11    1.01     4.76211    35.98038    21.22162
   775  H   1.0    0.10    1.00     3.51489    34.60088    18.80277
   776  C   4.0   -0.20    4.15     0.75589    31.16158    21.37280
   777  H   1.0    0.06    0.99     1.45509    30.44349    19.46418
   778  H   1.0    0.09    1.01     0.35905    29.87657    22.88458
   779  H   1.0    0.12    1.01    -0.88439    32.16314    21.22162
   780  C   4.0   -0.18    4.10     5.15895    31.23717    22.73340
   781  H   1.0    0.08    1.00     5.12116    29.64980    24.09401
   782  H   1.0    0.09    1.00     6.67073    32.50329    23.28142
   783  H   1.0    0.09    1.00     5.91484    30.34900    21.05155
   784  C   4.0   -0.13    4.14     1.70075    33.86389    24.96328
   785  H   1.0    0.10    1.01    -0.09071    34.61978    24.50975
   786  H   1.0    0.08    1.00     1.30391    32.35211    26.30499
   787  C   4.0   -0.16    4.01     3.17474    35.90479    26.41837
   788  H   1.0    0.08    1.00     3.81725    37.62444    25.45461
   789  H   1.0    0.12    1.01     4.85660    35.07331    26.81521
   790  O   6.0   -0.14    2.01     1.64406    36.28274    28.70494
   791  H   1.0    0.11    1.07     1.19053    38.09688    29.04509
   792  C   4.0   -0.14    4.06    22.80899     8.33369    23.13025
   793  N   5.0   -0.24    3.99    23.30032    11.16828    23.35701
   794  H   1.0    0.05    0.97    23.69716     6.76522    24.45305
   795  H   1.0    0.08    1.00    20.84368     7.84236    23.52709
   796  H   1.0    0.07    0.99    23.73496     7.12427    21.63736
   797  C   4.0   -0.13    4.10    22.33656    11.82968    25.98373
   798  H   1.0    0.07    0.99    22.43105    13.96507    26.19160
   799  H   1.0    0.06    0.98    20.23896    11.50843    26.56955
   800  H   1.0    0.07    0.99    23.52709    11.03600    27.55220
   801  C   4.0   -0.22    4.09    26.05932    12.01866    23.13025
   802  H   1.0    0.11    1.01    25.92704    13.98397    23.16804
   803  H   1.0    0.09    1.00    27.43882    11.05490    24.24518
   804  H   1.0    0.08    1.00    26.75852    11.58402    21.24052
   805  C   4.0   -0.09    4.13    21.75075    12.75565    21.44839
   806  H   1.0    0.09    1.01    22.60112    12.24542    19.65315
   807  H   1.0    0.06    0.99    22.20428    14.85325    21.80744
   808  C   4.0   -0.12    4.03    18.93505    12.43440    21.01375
   809  H   1.0    0.09    1.00    17.76342    12.94462    22.60112
   810  H   1.0    0.09    1.00    18.51931    10.45018    20.78699
   811  O   6.0   -0.15    2.03    18.42483    13.88949    18.89726
   812  H   1.0    0.10    1.18    17.78232    12.58557    17.59335
   813  C   4.0   -0.19    4.11     9.24076     4.40306    38.89056
   814  N   5.0   -0.24    3.99    10.26121     6.23610    37.03863
   815  H   1.0    0.09    1.00     7.25655     4.15740    38.60710
   816  H   1.0    0.06    0.98     9.35414     4.91329    41.00705
   817  H   1.0    0.11    1.00     9.88327     2.57003    38.55041
   818  C   4.0   -0.16    4.12     9.88327     5.02667    34.44970
   819  H   1.0    0.07    0.99    11.03600     6.00933    32.95682
   820  H   1.0    0.08    1.00    10.52577     3.08025    34.29853
   821  H   1.0    0.07    0.99     7.88016     4.78101    33.78830
   822  C   4.0   -0.15    4.05     8.80612     8.84392    36.88745
   823  H   1.0    0.06    0.99     8.88171    10.33680    38.43703
   824  H   1.0    0.08    1.00     9.76988     9.58091    35.18670
   825  H   1.0    0.07    0.99     6.78412     8.35259    36.45281
   826  C   4.0   -0.10    4.09    13.09580     6.65184    37.49216
   827  H   1.0    0.06    0.99    13.34147     7.61560    39.41968
   828  H   1.0    0.10    1.01    14.05956     4.91329    37.68114
   829  C   4.0   -0.09    3.99    15.08001     8.31479    36.01818
   830  H   1.0    0.09    1.00    14.32412    10.12893    35.52685
   831  H   1.0    0.05    0.97    15.57134     7.69118    33.93948
   832  O   6.0   -0.14    2.00    17.21540     8.76833    37.47327
   833  H   1.0    0.09    1.02    17.13981    10.52577    38.36144
   834  C   4.0   -0.18    4.09    43.14244    11.98086    12.50999
   835  N   5.0   -0.26    4.00    44.31407     9.44863    13.39816
   836  H   1.0    0.07    0.99    43.87944    13.54934    13.77610
   837  H   1.0    0.08    1.00    43.97392    12.33991    10.63916
   838  H   1.0    0.09    1.00    41.13933    12.13204    12.77455
   839  C   4.0   -0.18    4.15    47.09197     9.82657    13.20918
   840  H   1.0    0.08    1.00    48.24470     8.29590    13.96507
   841  H   1.0    0.09    1.00    47.73448    10.09114    11.30056
   842  H   1.0    0.07    1.00    47.73448    11.58402    14.15405
   843  C   4.0   -0.15    4.10    43.65267     8.86281    16.08157
   844  H   1.0    0.08    1.00    44.37077    10.46908    17.21540
   845  H   1.0    0.08    1.00    41.61177     8.63605    16.25164
   846  H   1.0    0.06    0.99    44.71092     7.12427    16.78077
   847  C   4.0   -0.08    4.08    43.55818     7.25655    11.65961
   848  H   1.0    0.06    0.99    44.10620     5.42351    12.66116
   849  H   1.0    0.07    1.00    41.49838     6.76522    11.67851
   850  C   4.0   -0.07    3.99    44.54084     7.14316     8.73053
   851  H   1.0    0.07    0.99    43.89833     9.07068     8.06913
   852  H   1.0    0.06    0.99    46.67623     7.35103     8.46597
   853  O   6.0   -0.20    2.01    43.61487     5.10226     7.40773
   854  H   1.0    0.15    1.02    45.03217     4.02512     7.19986
   855  C   4.0   -0.17    4.09    14.45640    13.62492    10.37460
   856  N   5.0   -0.24    3.99    13.39816    15.89260    11.81079
   857  H   1.0    0.09    1.00    14.70207    14.07846     8.42818
   858  H   1.0    0.06    0.98    13.19029    11.84858    10.41239
   859  H   1.0    0.08    1.00    16.27054    12.96352    11.14938
   860  C   4.0   -0.14    4.08    15.28788    18.06578    12.09425
   861  H   1.0    0.06    0.99    17.17761    17.38548    12.90683
   862  H   1.0    0.07    1.00    15.76031    18.89726    10.22342
   863  H   1.0    0.06    0.99    14.34302    19.70984    13.13360
   864  C   4.0   -0.17    4.11    11.30056    16.87525    10.12893
   865  H   1.0    0.08    1.00     9.82657    15.49575     9.58091
   866  H   1.0    0.09    1.00    10.09114    18.34924    10.86592
   867  H   1.0    0.07    0.99    12.13204    17.55555     8.29590
   868  C   4.0   -0.09    4.09    12.68006    15.06112    14.56979
   869  H   1.0    0.07    1.00    11.45174    13.34147    14.34302
   870  H   1.0    0.07    1.00    14.30523    14.09736    15.53355
   871  C   4.0   -0.11    4.02    11.13049    16.96974    16.15716
   872  H   1.0    0.08    1.00     9.37304    17.38548    15.15560
   873  H   1.0    0.10    1.01    12.26432    18.61380    16.38392
   874  O   6.0   -0.13    1.95    10.77144    15.98708    18.48152
   875  H   1.0    0.07    1.09     8.82502    15.23119    18.70829
   876  C   4.0   -0.21    4.08    34.77096     0.62361    22.86568
   877  N   5.0   -0.24    4.00    36.35833     3.08025    23.11135
   878  H   1.0    0.09    1.00    32.95682     1.07714    22.07200
   879  H   1.0    0.09    1.00    34.44970    -0.35338    24.62313
   880  H   1.0    0.09    1.00    35.62133    -1.01478    22.03420
   881  C   4.0   -0.15    4.10    35.03552     5.25344    24.47195
   882  H   1.0    0.08    1.00    34.80875     4.89439    26.49396
   883  H   1.0    0.06    0.99    33.16469     5.78256    23.50819
   884  H   1.0    0.07    1.00    36.22605     6.99199    24.37746
   885  C   4.0   -0.20    4.07    38.73938     2.53223    24.60423
   886  H   1.0    0.05    0.96    40.28896     4.17629    24.73651
   887  H   1.0    0.08    1.00    38.30474     1.94642    26.53175
   888  H   1.0    0.13    1.01    39.58976     1.15273    23.62157
   889  C   4.0   -0.12    4.13    36.88745     4.10071    20.44683
   890  H   1.0    0.08    1.00    35.03552     4.53534    19.57756
   891  H   1.0    0.10    1.01    37.92680     5.78256    20.74919
   892  C   4.0   -0.11    4.02    38.39923     2.58892    18.50042
   893  H   1.0    0.10    1.01    40.11888     1.92752    19.27520
   894  H   1.0    0.07    1.00    37.47327     0.69920    18.29255
   895  O   6.0   -0.13    1.97    38.87166     3.94953    16.36503
   896  H   1.0    0.07    0.95    38.90946     2.55113    14.87214
   897  C   4.0   -0.17    4.17    21.10824    20.97596    21.52398
   898  N   5.0   -0.27    4.01    21.69405    21.76964    18.87836
   899  H   1.0    0.09    1.00    21.25942    22.60112    22.77120
   900  H   1.0    0.09    1.00    22.41215    19.57756    22.20428
   901  H   1.0    0.07    0.99    19.08623    20.40904    21.97751
   902  C   4.0   -0.12    4.10    24.24518    22.69561    18.50042
   903  H   1.0    0.08    1.00    25.54909    21.14603    19.04844
   904  H   1.0    0.06    0.98    25.03887    23.35701    16.57290
   905  H   1.0    0.07    0.99    24.77431    24.54754    19.42638
   906  C   4.0   -0.18    4.17    21.33501    19.23741    17.53666
   907  H   1.0    0.08    1.00    21.63736    19.44528    15.47686
   908  H   1.0    0.08    1.00    19.33190    18.68939    17.80122
   909  H   1.0    0.09    1.00    22.22318    17.51776    18.17916
   910  C   4.0   -0.13    4.12    19.76653    23.69716    17.83901
   911  H   1.0    0.09    1.01    20.23896    25.43571    18.80277
   912  H   1.0    0.10    1.01    20.27676    23.94283    15.91149
   913  C   4.0   -0.09    4.01    16.89415    23.11135    18.31144
   914  H   1.0    0.08    1.00    16.36503    23.24363    20.31455
   915  H   1.0    0.07    0.99    16.13826    21.29721    17.46107
   916  O   6.0   -0.14    2.01    15.55244    25.30343    17.66894
   917  H   1.0    0.09    1.04    14.00287    24.58533    16.68628
   918  C   4.0   -0.22    4.15    46.56285     1.92752    20.88147
   919  N   5.0   -0.26    4.00    48.01794     1.00155    18.68939
   920  H   1.0    0.11    1.00    44.69202     2.39995    20.54132
   921  H   1.0    0.10    1.01    46.75182     0.34015    22.10979
   922  H   1.0    0.09    1.00    47.35653     3.57158    21.76964
   923  C   4.0   -0.17    4.11    50.72024     0.81258    19.29410
   924  H   1.0    0.11    1.00    51.83518     0.20787    17.78232
   925  H   1.0    0.06    0.98    51.49503    -0.63684    20.74919
   926  H   1.0    0.08    1.00    51.32496     2.74010    19.69094
   927  C   4.0   -0.18    4.11    46.95969    -1.69508    18.21696
   928  H   1.0    0.06    0.99    47.01638    -3.11238    19.82323
   929  H   1.0    0.07    0.99    45.01327    -1.73288    17.38548
   930  H   1.0    0.10    1.00    48.03683    -2.58326    16.78077
   931  C   4.0   -0.09    4.08    47.48881     2.64562    16.30833
   932  H   1.0    0.06    0.98    48.37698     4.62983    16.72407
   933  H   1.0    0.09    1.00    45.48570     2.85349    15.98708
   934  C   4.0   -0.06    3.97    48.71713     1.96531    13.73831
   935  H   1.0    0.06    0.98    50.85253     1.58737    14.07846
   936  H   1.0    0.05    0.98    47.69668     0.15118    13.00131
   937  O   6.0   -0.13    1.98    48.26360     3.91173    11.90527
   938  H   1.0    0.08    0.98    47.69668     2.94797    10.26121
   939  C   4.0   -0.16    4.06    18.46262    30.17892    39.45748
   940  N   5.0   -0.27    4.01    20.69250    28.28920    39.43858
   941  H   1.0    0.09    1.00    18.93505    31.89857    38.49372
   942  H   1.0    0.08    1.00    17.66894    30.38679    41.36610
   943  H   1.0    0.05    0.97    16.66738    29.55531    38.28585
   944  C   4.0   -0.15    4.17    22.96017    29.30965    40.61021
   945  H   1.0    0.09    1.00    24.67982    28.25140    40.30785
   946  H   1.0    0.07    0.99    23.54599    31.23717    39.96770
   947  H   1.0    0.07    0.99    22.96017    29.34744    42.74560
   948  C   4.0   -0.17    4.17    20.10668    25.98373    40.87477
   949  H   1.0    0.07    0.99    21.18383    24.16959    40.61021
   950  H   1.0    0.08    1.00    18.23586    25.24674    40.27006
   951  H   1.0    0.10    1.00    19.78543    26.38057    42.80229
   952  C   4.0   -0.13    4.15    21.31611    27.53331    36.69848
   953  H   1.0    0.11    1.01    22.63892    26.07822    36.58509
   954  H   1.0    0.08    1.00    19.55866    26.58844    36.09377
   955  C   4.0   -0.07    4.01    22.31766    29.49862    34.73316
   956  H   1.0    0.09    1.00    21.16493    31.18048    34.86544
   957  H   1.0    0.06    0.98    24.26408    29.87657    35.71582
   958  O   6.0   -0.14    1.99    22.92238    28.28920    32.57888
   959  H   1.0    0.08    1.14    22.56333    29.74429    31.21827
   960  C   4.0   -0.16    4.11    17.34768    36.84966    54.59418
   961  N   5.0   -0.26    4.00    18.25475    35.13001    56.62942
   962  H   1.0    0.06    0.99    17.27210    38.96615    54.99103
   963  H   1.0    0.10    1.00    18.27365    36.58509    52.85563
   964  H   1.0    0.06    0.99    15.21229    36.94414    54.31072
   965  C   4.0   -0.22    4.15    16.72407    35.07331    58.97268
   966  H   1.0    0.08    1.00    14.83435    34.26073    58.78371
   967  H   1.0    0.13    1.01    17.36658    33.99617    60.40887
   968  H   1.0    0.08    1.00    16.42172    37.05753    59.42621
   969  C   4.0   -0.19    4.16    17.95240    32.52218    55.45779
   970  H   1.0    0.10    1.00    16.04377    32.29542    54.87764
   971  H   1.0    0.08    1.00    18.59490    31.21827    56.95067
   972  H   1.0    0.08    1.00    19.18072    32.40880    53.76270
   973  C   4.0   -0.09    4.09    21.03265    35.52685    57.51759
   974  H   1.0    0.07    1.00    22.18538    35.65913    55.76014
   975  H   1.0    0.07    1.00    21.82633    34.20404    59.01047
   976  C   4.0   -0.14    4.02    22.05310    38.07798    58.78371
   977  H   1.0    0.11    1.01    21.03265    38.79607    60.29549
   978  H   1.0    0.08    1.00    21.67516    39.53307    57.38531
   979  O   6.0   -0.15    2.01    24.54754    37.71893    59.59629
   980  H   1.0    0.11    1.10    25.43571    39.00394    58.50025
   981  C   4.0   -0.15    4.06    30.21672    32.03085    17.93350
   982  N   5.0   -0.25    4.00    29.40414    30.55687    20.42794
   983  H   1.0    0.06    0.99    30.29231    34.05286    18.74608
   984  H   1.0    0.07    0.99    32.12534    31.76629    17.02643
   985  H   1.0    0.07    0.99    28.74273    31.93637    16.42172
   986  C   4.0   -0.15    4.15    26.68293    31.08599    20.65470
   987  H   1.0    0.06    0.99    26.38057    33.12690    21.27831
   988  H   1.0    0.08    1.00    26.07822    30.25451    22.46884
   989  H   1.0    0.09    1.00    25.49240    30.65135    19.04844
   990  C   4.0   -0.28    4.15    29.34744    27.70338    19.63425
   991  H   1.0    0.12    1.01    28.08133    27.36323    18.19806
   992  H   1.0    0.09    1.00    31.12379    27.09867    18.87836
   993  H   1.0    0.13    1.01    29.00729    26.64514    21.18383
   994  C   4.0   -0.10    4.10    31.04820    30.93481    22.69561
   995  H   1.0    0.09    1.01    31.10489    32.99462    22.67671
   996  H   1.0    0.09    1.01    29.85767    30.25451    24.22629
   997  C   4.0   -0.10    4.02    33.58043    29.55531    22.79009
   998  H   1.0    0.08    1.00    33.14579    27.53331    22.99796
   999  H   1.0    0.07    1.00    34.54419    30.04664    20.99486
  1000  O   6.0   -0.12    1.96    34.92214    30.29231    25.00107
  1001  H   1.0    0.08    1.14    36.73627    31.02930    24.37746
  1002  C   4.0   -0.16    4.13    35.05442    20.27676    13.56823
  1003  N   5.0   -0.26    4.01    33.46705    21.84523    11.79189
  1004  H   1.0    0.09    1.00    33.99617    18.84057    14.56979
  1005  H   1.0    0.08    1.00    36.81186    19.55866    12.69896
  1006  H   1.0    0.07    0.99    36.07487    21.48618    15.00442
  1007  C   4.0   -0.20    4.10    31.82298    20.29566    10.03444
  1008  H   1.0    0.13    1.01    32.95682    19.16182     8.99510
  1009  H   1.0    0.06    0.99    30.80253    21.41060     8.48487
  1010  H   1.0    0.07    1.00    30.53797    19.08623    11.16828
  1011  C   4.0   -0.21    4.12    31.59622    23.33812    13.39816
  1012  H   1.0    0.06    0.98    32.46549    24.39636    15.09891
  1013  H   1.0    0.11    1.01    30.42459    21.99641    14.21074
  1014  H   1.0    0.10    1.00    30.23562    24.32077    12.32101
  1015  C   4.0   -0.10    4.13    35.33788    23.50819    10.45018
  1016  H   1.0    0.08    1.00    34.29853    24.71762     9.10848
  1017  H   1.0    0.09    1.00    36.11266    24.88769    11.73520
  1018  C   4.0   -0.17    4.01    37.52996    22.31766     8.73053
  1019  H   1.0    0.14    1.01    36.64179    21.20273     7.50221
  1020  H   1.0    0.07    1.00    38.98505    21.05155     9.54312
  1021  O   6.0   -0.12    1.97    38.70159    24.26408     7.23765
  1022  H   1.0    0.08    1.06    38.05908    23.65937     5.42351
  1023  C   4.0   -0.21    4.13    49.73759    10.71475    40.78029
  1024  N   5.0   -0.26    4.00    48.07463    10.56357    43.02906
  1025  H   1.0    0.06    0.99    49.13287    12.24542    39.38189
  1026  H   1.0    0.10    1.00    51.60842    11.24387    41.27161
  1027  H   1.0    0.12    1.01    49.96435     9.03289    39.85432
  1028  C   4.0   -0.18    4.13    48.07463    13.13360    44.33297
  1029  H   1.0    0.08    1.00    47.71558    14.55089    42.87788
  1030  H   1.0    0.08    1.00    46.63844    13.26588    45.82585
  1031  H   1.0    0.09    1.00    50.03994    13.41705    44.84320
  1032  C   4.0   -0.17    4.14    45.46681    10.12893    42.04640
  1033  H   1.0    0.08    1.00    44.99437     8.25810    41.32831
  1034  H   1.0    0.07    0.99    44.82430    11.84858    40.96926
  1035  H   1.0    0.09    1.00    44.10620    10.31790    43.55818
  1036  C   4.0   -0.10    4.10    48.84942     8.56046    45.10776
  1037  H   1.0    0.07    1.00    50.64466     9.25966    46.05262
  1038  H   1.0    0.09    1.01    47.56440     8.57936    46.71403
  1039  C   4.0   -0.14    4.03    49.37854     5.91484    44.52194
  1040  H   1.0    0.10    1.01    50.47458     6.12271    42.85898
  1041  H   1.0    0.10    1.01    47.73448     5.12116    43.76605
  1042  O   6.0   -0.13    1.97    50.51237     4.64873    46.50616
  1043  H   1.0    0.07    0.95    52.43612     4.19519    45.97703
  1044  C   4.0   -0.19    4.07    50.90922    30.70805    46.48726
  1045  N   5.0   -0.22    3.95    52.37942    33.31587    46.86520
  1046  H   1.0    0.10    1.00    50.09663    30.91592    44.69202
  1047  H   1.0    0.08    1.00    52.25092    29.12068    46.48726
  1048  H   1.0    0.06    0.98    49.20846    30.34900    47.79117
  1049  C   4.0   -0.14    4.07    54.25025    33.58043    44.76761
  1050  H   1.0    0.07    0.99    55.72424    32.06865    45.12666
  1051  H   1.0    0.07    0.99    53.49436    33.54264    42.80229
  1052  H   1.0    0.07    0.99    55.55416    35.22449    44.71092
  1053  C   4.0   -0.18    4.09    50.21002    35.24339    46.22270
  1054  H   1.0    0.08    1.00    50.85253    37.20870    46.44946
  1055  H   1.0    0.09    1.00    49.17067    35.41346    44.48415
  1056  H   1.0    0.06    0.99    48.43368    35.05442    47.41322
  1057  C   4.0   -0.11    4.05    53.22980    33.44815    49.73759
  1058  H   1.0    0.07    1.00    51.53283    32.91903    50.87142
  1059  H   1.0    0.09    1.00    53.91010    35.30008    50.24781
  1060  C   4.0   -0.15    4.00    55.36519    31.61512    50.72024
  1061  H   1.0    0.11    1.01    54.66599    29.89546    50.13443
  1062  H   1.0    0.08    1.00    57.21712    31.99306    49.88877
  1063  O   6.0   -0.12    1.97    55.27070    31.80409    53.46035
  1064  H   1.0    0.08    0.97    57.12264    31.74740    54.21624
  1065  C   4.0   -0.12    4.11    15.19340    41.91412    28.93170
  1066  N   5.0   -0.26    4.00    17.82012    41.23382    28.23251
  1067  H   1.0    0.06    0.98    14.62648    43.93613    28.36479
  1068  H   1.0    0.07    0.99    14.66427    41.15823    30.84033
  1069  H   1.0    0.06    0.99    14.00287    40.87477    27.45772
  1070  C   4.0   -0.18    4.14    19.40749    43.29362    29.57421
  1071  H   1.0    0.08    1.00    19.16182    45.24004    28.96950
  1072  H   1.0    0.07    1.00    19.08623    43.52039    31.63401
  1073  H   1.0    0.07    1.00    21.42949    42.87788    29.17737
  1074  C   4.0   -0.13    4.11    18.59490    38.77718    29.23406
  1075  H   1.0    0.07    0.99    20.71140    38.56931    28.96950
  1076  H   1.0    0.08    1.00    18.17916    38.85277    31.25607
  1077  H   1.0    0.07    0.99    17.47997    37.01973    28.70494
  1078  C   4.0   -0.12    4.12    18.33034    41.47948    25.36012
  1079  H   1.0    0.08    1.01    20.27676    40.91257    24.84990
  1080  H   1.0    0.10    1.01    17.87681    43.31252    24.69872
  1081  C   4.0   -0.10    4.05    17.25320    39.64645    23.41370
  1082  H   1.0    0.08    1.00    17.57445    37.62444    23.79165
  1083  H   1.0    0.08    1.00    15.21229    39.94881    23.35701
  1084  O   6.0   -0.18    2.03    18.19806    40.11888    21.01375
  1085  H   1.0    0.14    1.14    16.64849    40.49683    20.10668
  1086  C   4.0   -0.18    4.08    13.64382     5.44241    11.22497
  1087  N   5.0   -0.24    4.00    13.79500     3.19364     9.33525
  1088  H   1.0    0.06    0.99    11.67851     5.46131    12.11314
  1089  H   1.0    0.07    0.99    14.13515     7.31324    10.37460
  1090  H   1.0    0.10    1.00    14.75876     5.14005    12.83124
  1091  C   4.0   -0.17    4.10    12.96352     0.86927    10.79034
  1092  H   1.0    0.08    1.00    11.01710     1.17163    11.37615
  1093  H   1.0    0.08    1.00    13.85169     0.88817    12.68006
  1094  H   1.0    0.07    0.99    12.94462    -1.01478     9.84547
  1095  C   4.0   -0.24    4.10    12.18873     3.66607     7.01088
  1096  H   1.0    0.09    1.00    10.22342     3.85504     7.48331
  1097  H   1.0    0.11    1.00    12.52888     2.39995     5.55579
  1098  H   1.0    0.10    1.01    12.79344     5.42351     6.33058
  1099  C   4.0   -0.15    4.12    16.51620     2.77790     8.44707
  1100  H   1.0    0.09    1.01    16.70518     1.11494     7.25655
  1101  H   1.0    0.12    1.01    16.79966     4.25188     7.23765
  1102  C   4.0   -0.12    4.00    18.76498     2.39995    10.29901
  1103  H   1.0    0.07    1.00    18.93505     4.04401    11.62181
  1104  H   1.0    0.09    1.00    20.46573     2.57003     9.24076
[...]
  1898  H   0.997    C 1897 0.965
  1899  H   0.998    C 1897 0.960
  1900  C   3.939    O 1903 1.013    H 1902 0.971    C 1897 0.971    H 1901 0.948
  1901  H   0.994    C 1900 0.948
  1902  H   0.998    C 1900 0.971
  1903  O   1.990    C 1900 1.013    H 1904 0.689    O  466 0.137    C 1897 0.057
  1904  H   0.977    O 1903 0.689    O  466 0.277
  1905  C   3.907    H 1909 0.981    H 1908 0.978    H 1907 0.974    N 1906 0.926
  1906  N   3.753    C 1910 0.939    C 1914 0.935    C 1905 0.926    C 1918 0.874
  1907  H   0.994    C 1905 0.974
  1908  H   0.995    C 1905 0.978
  1909  H   0.997    C 1905 0.981
  1910  C   3.907    H 1911 0.972    H 1912 0.972    H 1913 0.969    N 1906 0.939
  1911  H   0.995    C 1910 0.972
  1912  H   0.997    C 1910 0.972
  1913  H   0.994    C 1910 0.969
  1914  C   3.911    H 1916 0.979    H 1915 0.977    H 1917 0.972    N 1906 0.935
  1915  H   0.994    C 1914 0.977
  1916  H   0.997    C 1914 0.979
  1917  H   0.994    C 1914 0.972
  1918  C   3.863    H 1920 0.968    H 1919 0.961    C 1921 0.953    N 1906 0.874    O 1924 0.058
  1919  H   0.997    C 1918 0.961
  1920  H   0.997    C 1918 0.968
  1921  C   3.956    O 1924 1.025    H 1922 0.972    H 1923 0.971    C 1918 0.953
  1922  H   0.998    C 1921 0.972
  1923  H   0.998    C 1921 0.971
  1924  O   2.062    C 1921 1.025    H 1925 0.821    O  192 0.085    C 1918 0.058
  1925  H   0.976    O 1924 0.821    O  192 0.144
  1926  C   3.905    H 1928 0.976    H 1929 0.975    H 1930 0.974    N 1927 0.927
  1927  N   3.750    C 1931 0.936    C 1926 0.927    C 1939 0.910    C 1935 0.904
  1928  H   0.995    C 1926 0.976
  1929  H   0.995    C 1926 0.975
  1930  H   0.995    C 1926 0.974
  1931  C   3.901    H 1934 0.972    H 1933 0.969    H 1932 0.962    N 1927 0.936
  1932  H   0.994    C 1931 0.962
  1933  H   0.994    C 1931 0.969
  1934  H   0.998    C 1931 0.972
  1935  C   3.882    H 1936 0.977    H 1938 0.977    H 1937 0.971    N 1927 0.904
  1936  H   0.995    C 1935 0.977
  1937  H   0.992    C 1935 0.971
  1938  H   0.996    C 1935 0.977
  1939  C   3.889    H 1940 0.971    H 1941 0.968    C 1942 0.939    N 1927 0.910    O 1945 0.059
  1940  H   0.998    C 1939 0.971
  1941  H   0.996    C 1939 0.968
  1942  C   3.955    O 1945 1.050    H 1944 0.970    H 1943 0.964    C 1939 0.939
  1943  H   0.998    C 1942 0.964
  1944  H   0.999    C 1942 0.970
  1945  O   2.132    C 1942 1.050    H 1946 0.965    C 1939 0.059
  1946  H   0.974    O 1945 0.965
  1947  C   3.923    H 1949 0.980    H 1951 0.975    H 1950 0.971    N 1948 0.945
  1948  N   3.761    C 1952 0.963    C 1947 0.945    C 1956 0.914    C 1960 0.853
  1949  H   0.998    C 1947 0.980
  1950  H   0.993    C 1947 0.971
  1951  H   0.996    C 1947 0.975
  1952  C   3.921    H 1953 0.973    H 1955 0.971    H 1954 0.970    N 1948 0.963
  1953  H   0.994    C 1952 0.973
  1954  H   0.997    C 1952 0.970
  1955  H   0.995    C 1952 0.971
  1956  C   3.898    H 1959 0.978    H 1958 0.978    H 1957 0.973    N 1948 0.914
  1957  H   0.995    C 1956 0.973
  1958  H   0.996    C 1956 0.978
  1959  H   0.995    C 1956 0.978
  1960  C   3.871    H 1961 0.969    H 1962 0.964    C 1963 0.949    N 1948 0.853    O 1966 0.090
  1961  H   0.997    C 1960 0.969
  1962  H   0.998    C 1960 0.964
  1963  C   3.952    O 1966 1.047    H 1964 0.970    H 1965 0.965    C 1960 0.949
  1964  H   0.996    C 1963 0.970
  1965  H   1.000    C 1963 0.965
  1966  O   2.186    C 1963 1.047    H 1967 0.963    C 1960 0.090
  1967  H   0.972    O 1966 0.963
  1968  C   3.899    H 1971 0.974    H 1972 0.971    H 1970 0.968    N 1969 0.924
  1969  N   3.770    C 1977 0.957    C 1968 0.924    C 1973 0.914    C 1981 0.900
  1970  H   0.996    C 1968 0.968
  1971  H   0.996    C 1968 0.974
  1972  H   0.994    C 1968 0.971
  1973  C   3.905    H 1974 0.983    H 1975 0.981    H 1976 0.977    N 1969 0.914
  1974  H   0.997    C 1973 0.983
  1975  H   0.996    C 1973 0.981
  1976  H   0.993    C 1973 0.977
  1977  C   3.921    H 1978 0.975    H 1980 0.971    H 1979 0.965    N 1969 0.957
  1978  H   0.996    C 1977 0.975
  1979  H   0.994    C 1977 0.965
  1980  H   0.997    C 1977 0.971
  1981  C   3.880    C 1984 0.965    H 1983 0.964    H 1982 0.960    N 1969 0.900
  1982  H   0.997    C 1981 0.960
  1983  H   0.998    C 1981 0.964
  1984  C   3.947    O 1987 1.004    H 1985 0.971    H 1986 0.970    C 1981 0.965
  1985  H   0.995    C 1984 0.971
  1986  H   0.997    C 1984 0.970
  1987  O   2.080    C 1984 1.004    H 1988 0.966
  1988  H   0.974    O 1987 0.966
  1989  C   3.915    H 1992 0.976    H 1993 0.969    H 1991 0.966    N 1990 0.946
  1990  N   3.759    C 1989 0.946    C 1994 0.936    C 1998 0.911    C 2002 0.888
  1991  H   0.993    C 1989 0.966
  1992  H   0.997    C 1989 0.976
  1993  H   0.997    C 1989 0.969
  1994  C   3.903    H 1996 0.975    H 1997 0.974    H 1995 0.968    N 1990 0.936
  1995  H   0.996    C 1994 0.968
  1996  H   0.995    C 1994 0.975
  1997  H   0.996    C 1994 0.974
  1998  C   3.897    H 1999 0.980    H 2000 0.976    H 2001 0.975    N 1990 0.911
  1999  H   0.997    C 1998 0.980
  2000  H   0.994    C 1998 0.976
  2001  H   0.995    C 1998 0.975
  2002  C   3.884    C 2005 0.975    H 2004 0.965    H 2003 0.960    N 1990 0.888
  2003  H   0.997    C 2002 0.960
  2004  H   0.996    C 2002 0.965
  2005  C   3.951    O 2008 1.016    C 2002 0.975    H 2007 0.971    H 2006 0.957
  2006  H   0.998    C 2005 0.957
  2007  H   0.998    C 2005 0.971
  2008  O   2.099    C 2005 1.016    H 2009 0.969
  2009  H   0.978    O 2008 0.969
  2010  C   3.915    H 2014 0.979    H 2012 0.978    H 2013 0.974    N 2011 0.940
  2011  N   3.762    C 2019 0.948    C 2010 0.940    C 2015 0.924    C 2023 0.872
  2012  H   0.995    C 2010 0.978
  2013  H   0.995    C 2010 0.974
  2014  H   0.997    C 2010 0.979
  2015  C   3.904    H 2017 0.978    H 2016 0.973    H 2018 0.971    N 2011 0.924
  2016  H   0.993    C 2015 0.973
  2017  H   0.997    C 2015 0.978
  2018  H   0.996    C 2015 0.971
  2019  C   3.917    H 2021 0.976    H 2020 0.974    H 2022 0.969    N 2011 0.948
  2020  H   0.996    C 2019 0.974
  2021  H   0.998    C 2019 0.976
  2022  H   0.993    C 2019 0.969
  2023  C   3.883    C 2026 0.979    H 2025 0.966    H 2024 0.963    N 2011 0.872    O 2029 0.055
  2024  H   0.997    C 2023 0.963
  2025  H   0.998    C 2023 0.966
  2026  C   3.959    O 2029 1.016    C 2023 0.979    H 2028 0.964    H 2027 0.961
  2027  H   0.999    C 2026 0.961
  2028  H   0.998    C 2026 0.964
  2029  O   2.089    C 2026 1.016    H 2030 0.942    C 2023 0.055
  2030  H   0.966    O 2029 0.942
  2031  C   3.908    H 2035 0.975    H 2033 0.971    H 2034 0.970    N 2032 0.942
  2032  N   3.758    C 2031 0.942    C 2040 0.939    C 2036 0.927    C 2044 0.872
  2033  H   0.997    C 2031 0.971
  2034  H   0.995    C 2031 0.970
  2035  H   0.996    C 2031 0.975
  2036  C   3.913    H 2037 0.979    H 2038 0.979    H 2039 0.976    N 2032 0.927
  2037  H   0.997    C 2036 0.979
  2038  H   0.995    C 2036 0.979
  2039  H   0.996    C 2036 0.976
  2040  C   3.911    H 2042 0.977    H 2043 0.974    H 2041 0.974    N 2032 0.939
  2041  H   0.996    C 2040 0.974
  2042  H   0.996    C 2040 0.977
  2043  H   0.993    C 2040 0.974
  2044  C   3.847    H 2046 0.974    H 2045 0.960    C 2047 0.915    N 2032 0.872    O 2050 0.076
  2045  H   0.996    C 2044 0.960
  2046  H   0.999    C 2044 0.974
  2047  C   3.952    O 2050 1.064    H 2048 0.974    H 2049 0.963    C 2044 0.915
  2048  H   0.998    C 2047 0.974
  2049  H   0.998    C 2047 0.963
  2050  O   2.131    C 2047 1.064    H 2051 0.826    C 2044 0.076    O  459 0.071
  2051  H   0.974    O 2050 0.826    O  459 0.134
  2052  C   3.909    H 2054 0.976    H 2056 0.974    H 2055 0.973    N 2053 0.935
  2053  N   3.775    C 2057 0.950    C 2052 0.935    C 2061 0.934    C 2065 0.890
  2054  H   0.996    C 2052 0.976
  2055  H   0.995    C 2052 0.973
  2056  H   0.995    C 2052 0.974
  2057  C   3.924    H 2059 0.976    H 2058 0.974    H 2060 0.970    N 2053 0.950
  2058  H   0.998    C 2057 0.974
  2059  H   0.995    C 2057 0.976
  2060  H   0.996    C 2057 0.970
  2061  C   3.911    H 2064 0.980    H 2063 0.975    H 2062 0.975    N 2053 0.934
  2062  H   0.995    C 2061 0.975
  2063  H   0.993    C 2061 0.975
  2064  H   0.998    C 2061 0.980
  2065  C   3.877    H 2067 0.968    H 2066 0.967    C 2068 0.963    N 2053 0.890
  2066  H   0.997    C 2065 0.967
  2067  H   0.998    C 2065 0.968
  2068  C   3.944    O 2071 1.020    H 2069 0.969    C 2065 0.963    H 2070 0.962
  2069  H   0.999    C 2068 0.969
  2070  H   0.996    C 2068 0.962
  2071  O   2.075    C 2068 1.020    H 2072 0.960
  2072  H   0.972    O 2071 0.960
  2073  C   3.934    H 2077 0.979    H 2075 0.979    H 2076 0.972    N 2074 0.963
  2074  N   3.773    C 2073 0.963    C 2078 0.936    C 2082 0.929    C 2086 0.876
  2075  H   0.997    C 2073 0.979
  2076  H   0.995    C 2073 0.972
  2077  H   0.997    C 2073 0.979
  2078  C   3.910    H 2081 0.977    H 2079 0.974    H 2080 0.966    N 2074 0.936
  2079  H   0.997    C 2078 0.974
  2080  H   0.995    C 2078 0.966
  2081  H   0.997    C 2078 0.977
  2082  C   3.910    H 2083 0.979    H 2085 0.976    H 2084 0.976    N 2074 0.929
  2083  H   0.996    C 2082 0.979
  2084  H   0.993    C 2082 0.976
  2085  H   0.996    C 2082 0.976
  2086  C   3.874    H 2087 0.972    H 2088 0.963    C 2089 0.948    N 2074 0.876    O 2092 0.069
  2087  H   0.999    C 2086 0.972
  2088  H   0.996    C 2086 0.963
  2089  C   3.952    O 2092 1.038    H 2091 0.969    H 2090 0.964    C 2086 0.948
  2090  H   0.997    C 2089 0.964
  2091  H   0.998    C 2089 0.969
  2092  O   2.147    C 2089 1.038    H 2093 0.962    C 2086 0.069
  2093  H   0.973    O 2092 0.962
  2094  C   3.895    H 2096 0.977    H 2097 0.975    H 2098 0.966    N 2095 0.909
  2095  N   3.748    C 2099 0.961    C 2103 0.934    C 2094 0.909    C 2107 0.864
  2096  H   0.996    C 2094 0.977
  2097  H   0.996    C 2094 0.975
  2098  H   0.993    C 2094 0.966
  2099  C   3.932    H 2101 0.979    H 2100 0.976    H 2102 0.975    N 2095 0.961
  2100  H   0.995    C 2099 0.976
  2101  H   0.997    C 2099 0.979
  2102  H   0.997    C 2099 0.975
  2103  C   3.910    H 2105 0.978    H 2104 0.973    H 2106 0.967    N 2095 0.934
  2104  H   0.998    C 2103 0.973
  2105  H   0.997    C 2103 0.978
  2106  H   0.994    C 2103 0.967
  2107  C   3.872    C 2110 0.977    H 2109 0.966    H 2108 0.955    N 2095 0.864    O 2113 0.054
  2108  H   0.996    C 2107 0.955
  2109  H   0.994    C 2107 0.966
  2110  C   3.966    O 2113 1.034    C 2107 0.977    H 2112 0.969    H 2111 0.962
  2111  H   1.000    C 2110 0.962
  2112  H   0.999    C 2110 0.969
  2113  O   2.000    C 2110 1.034    H 2114 0.693    O  508 0.136    C 2107 0.054
  2114  H   0.979    O 2113 0.693    O  508 0.274
  2115  C   3.912    H 2117 0.980    H 2119 0.972    H 2118 0.970    N 2116 0.939
  2116  N   3.759    C 2124 0.944    C 2115 0.939    C 2120 0.932    C 2128 0.873
  2117  H   0.996    C 2115 0.980
  2118  H   0.994    C 2115 0.970
  2119  H   0.996    C 2115 0.972
  2120  C   3.909    H 2123 0.980    H 2122 0.979    H 2121 0.971    N 2116 0.932
  2121  H   0.994    C 2120 0.971
  2122  H   0.996    C 2120 0.979
  2123  H   0.996    C 2120 0.980
  2124  C   3.926    H 2127 0.980    H 2126 0.979    H 2125 0.976    N 2116 0.944
  2125  H   0.995    C 2124 0.976
  2126  H   0.997    C 2124 0.979
  2127  H   0.996    C 2124 0.980
  2128  C   3.862    H 2130 0.967    C 2131 0.966    H 2129 0.954    N 2116 0.873    O 2134 0.055
  2129  H   0.997    C 2128 0.954
  2130  H   0.998    C 2128 0.967
  2131  C   3.931    O 2134 1.005    C 2128 0.966    H 2132 0.959    H 2133 0.958
  2132  H   0.996    C 2131 0.959
  2133  H   0.998    C 2131 0.958
  2134  O   2.090    C 2131 1.005    H 2135 0.960    C 2128 0.055
  2135  H   0.973    O 2134 0.960
  2136  C   3.916    H 2138 0.974    H 2140 0.969    H 2139 0.965    N 2137 0.949
  2137  N   3.769    C 2136 0.949    C 2145 0.944    C 2141 0.939    C 2149 0.866
  2138  H   0.998    C 2136 0.974
  2139  H   0.996    C 2136 0.965
  2140  H   0.995    C 2136 0.969
  2141  C   3.912    H 2142 0.970    H 2143 0.970    H 2144 0.967    N 2137 0.939
  2142  H   0.996    C 2141 0.970
  2143  H   0.995    C 2141 0.970
  2144  H   0.997    C 2141 0.967
  2145  C   3.920    H 2148 0.979    H 2146 0.975    H 2147 0.973    N 2137 0.944
  2146  H   0.997    C 2145 0.975
  2147  H   0.995    C 2145 0.973
  2148  H   0.993    C 2145 0.979
  2149  C   3.859    H 2151 0.967    C 2152 0.962    H 2150 0.959    N 2137 0.866    O 2155 0.055
  2150  H   0.996    C 2149 0.959
  2151  H   0.999    C 2149 0.967
  2152  C   3.965    O 2155 1.043    H 2153 0.968    C 2149 0.962    H 2154 0.959
  2153  H   0.998    C 2152 0.968
  2154  H   0.999    C 2152 0.959
  2155  O   2.084    C 2152 1.043    H 2156 0.820    O  521 0.077    C 2149 0.055
  2156  H   0.975    O 2155 0.820    O  521 0.141
  2157  C   3.918    H 2161 0.978    H 2159 0.977    H 2160 0.977    N 2158 0.943
  2158  N   3.753    C 2162 0.948    C 2157 0.943    C 2166 0.895    C 2170 0.892
  2159  H   0.996    C 2157 0.977
  2160  H   0.996    C 2157 0.977
  2161  H   0.995    C 2157 0.978
  2162  C   3.924    H 2165 0.980    H 2163 0.979    H 2164 0.973    N 2158 0.948
  2163  H   0.996    C 2162 0.979
  2164  H   0.996    C 2162 0.973
  2165  H   0.996    C 2162 0.980
  2166  C   3.876    H 2167 0.979    H 2168 0.978    H 2169 0.965    N 2158 0.895
  2167  H   0.995    C 2166 0.979
  2168  H   0.997    C 2166 0.978
  2169  H   0.994    C 2166 0.965
  2170  C   3.888    C 2173 0.970    H 2171 0.965    H 2172 0.965    N 2158 0.892    O 2176 0.051
  2171  H   0.998    C 2170 0.965
  2172  H   0.996    C 2170 0.965
  2173  C   3.964    O 2176 1.019    H 2174 0.978    H 2175 0.971    C 2170 0.970
  2174  H   0.999    C 2173 0.978
  2175  H   0.995    C 2173 0.971
  2176  O   2.098    C 2173 1.019    H 2177 0.963    C 2170 0.051
  2177  H   0.972    O 2176 0.963
  2178  C   3.903    H 2180 0.977    H 2182 0.965    H 2181 0.964    N 2179 0.950
  2179  N   3.770    C 2178 0.950    C 2187 0.946    C 2183 0.917    C 2191 0.884
  2180  H   0.998    C 2178 0.977
  2181  H   0.995    C 2178 0.964
  2182  H   0.993    C 2178 0.965
  2183  C   3.897    H 2185 0.979    H 2186 0.975    H 2184 0.968    N 2179 0.917
  2184  H   0.992    C 2183 0.968
  2185  H   0.996    C 2183 0.979
  2186  H   0.997    C 2183 0.975
  2187  C   3.915    H 2190 0.974    H 2189 0.967    H 2188 0.964    N 2179 0.946
  2188  H   0.997    C 2187 0.964
  2189  H   0.993    C 2187 0.967
  2190  H   0.998    C 2187 0.974
  2191  C   3.884    H 2192 0.968    H 2193 0.967    C 2194 0.963    N 2179 0.884
  2192  H   0.995    C 2191 0.968
  2193  H   0.998    C 2191 0.967
  2194  C   3.947    O 2197 1.016    H 2195 0.975    C 2191 0.963    H 2196 0.963
  2195  H   0.998    C 2194 0.975
  2196  H   0.998    C 2194 0.963
  2197  O   2.087    C 2194 1.016    H 2198 0.958
  2198  H   0.972    O 2197 0.958
  2199  C   3.918    H 2202 0.978    H 2203 0.977    H 2201 0.970    N 2200 0.946
  2200  N   3.747    C 2208 0.960    C 2199 0.946    C 2204 0.907    C 2212 0.858
  2201  H   0.995    C 2199 0.970
  2202  H   0.996    C 2199 0.978
  2203  H   0.996    C 2199 0.977
  2204  C   3.893    H 2206 0.983    H 2205 0.977    H 2207 0.976    N 2200 0.907
  2205  H   0.993    C 2204 0.977
  2206  H   0.998    C 2204 0.983
  2207  H   0.994    C 2204 0.976
  2208  C   3.916    H 2211 0.976    H 2210 0.973    H 2209 0.970    N 2200 0.960
  2209  H   0.996    C 2208 0.970
  2210  H   0.996    C 2208 0.973
  2211  H   0.998    C 2208 0.976
  2212  C   3.860    H 2214 0.970    H 2213 0.966    C 2215 0.955    N 2200 0.858    O 2218 0.058
  2213  H   0.997    C 2212 0.966
  2214  H   0.997    C 2212 0.970
  2215  C   3.945    O 2218 1.028    H 2217 0.965    H 2216 0.959    C 2212 0.955
  2216  H   0.998    C 2215 0.959
  2217  H   0.999    C 2215 0.965
  2218  O   2.071    C 2215 1.028    H 2219 0.812    O  200 0.081    C 2212 0.058
  2219  H   0.975    O 2218 0.812    O  200 0.147
  2220  C   3.910    H 2223 0.977    H 2222 0.976    H 2224 0.972    N 2221 0.939
  2221  N   3.745    C 2229 0.943    C 2220 0.939    C 2225 0.926    C 2233 0.853
  2222  H   0.995    C 2220 0.976
  2223  H   0.996    C 2220 0.977
  2224  H   0.996    C 2220 0.972
  2225  C   3.910    H 2228 0.980    H 2227 0.979    H 2226 0.978    N 2221 0.926
  2226  H   0.996    C 2225 0.978
  2227  H   0.996    C 2225 0.979
  2228  H   0.996    C 2225 0.980
  2229  C   3.915    H 2232 0.977    H 2230 0.975    H 2231 0.968    N 2221 0.943
  2230  H   0.996    C 2229 0.975
  2231  H   0.996    C 2229 0.968
  2232  H   0.997    C 2229 0.977
  2233  C   3.850    H 2235 0.967    H 2234 0.963    C 2236 0.947    N 2221 0.853    O 2239 0.073
  2234  H   0.997    C 2233 0.963
  2235  H   0.998    C 2233 0.967
  2236  C   3.959    O 2239 1.033    H 2238 0.975    H 2237 0.970    C 2233 0.947
  2237  H   0.997    C 2236 0.970
  2238  H   0.997    C 2236 0.975
  2239  O   2.094    C 2236 1.033    H 2240 0.829    O   67 0.075    C 2233 0.073
  2240  H   0.974    O 2239 0.829    O   67 0.123
 
 --------------------------------------------
          xTB calculation for sTDA...
 --------------------------------------------
 
 reading parameter file /home/karl/Software/xtb2/.param_stda2.xtb
 
      method parameters     
 k(s)        :  1.6000
 k(p)        :  2.1800
 k(d)        :  1.9500
 k(f)        :  2.0000
 k(R-V)      :  2.2750
 k(R-R)      :  1.7650
 Tscal       :  0.2580
 Gscal       :  1.0000
 fpol        :  1.0000
 Zcnf        :  0.3430
 Zqf         :  0.0000
 kcn         :  2.7000
 Ryd Hsplit  :  0.7000
 lshift(virt):  3.1000
 lshift(OS)  :  0.2000
 wllscaling  :  2.6000
 
 mowrcut     : 3.000
 
  Z AO/shell   Hii/eV     exponent
  1     Sun Feb 14 09:53:25 CET 2016    EN: 2.327 GAM: 0.473  GM3: 0.0000
     1s    -14.339618    1.220000
     2sp    -3.348946    0.600000
  6     Sun Feb 14 09:53:25 CET 2016    EN: 2.731 GAM: 0.422  GM3: 0.0000
     2s    -22.009312    1.565095
     2p    -13.020408    1.596905
     3sp    -3.914040    0.824500
  7     Sun Feb 14 09:53:25 CET 2016    EN: 3.573 GAM: 0.504  GM3: 0.0000
     2s    -25.722000    2.064844
     2p    -18.684912    1.801692
     3sp    -4.344791    0.921400
  8     Sun Feb 14 09:53:25 CET 2016    EN: 3.700 GAM: 0.587  GM3: 0.0000
     2s    -33.859000    2.418661
     2p    -22.175911    1.973969
     3sp    -4.259392    1.013700
 
 Nbf   :        13840
 T(el) :     0.0
 calculating S/T integrals ...
 cpu time for ints    94.1426570000000     
 Nao   :        13840
 making H0...
 making H1...
 cpu time for H       23.9484150000000     
 solving ...
 cpu time for diag    840.193514000000     
 
 gap (eV)           :   3.136
 Koopmans IP (eV)   :  10.434
 Eel (Eh)           : -4519.079686

          eigenvalues
 #    :        2708       2709       2710       2711       2712       2713       2714       2715
 occ. :        2.000      2.000      2.000      2.000      2.000      2.000      2.000      2.000
 eps  :       -10.758    -10.740    -10.731    -10.722    -10.694    -10.643    -10.641    -10.593
 #    :        2716       2717       2718       2719       2720       2721       2722       2723
 occ. :        2.000      2.000      2.000      2.000      2.000      0.000      0.000      0.000
 eps  :       -10.580    -10.549    -10.539    -10.477    -10.435     -7.299     -7.254     -7.226
 #    :        2724       2725       2726       2727       2728       2729       2730       2731
 occ. :        0.000      0.000      0.000      0.000      0.000      0.000      0.000      0.000
 eps  :        -7.225     -7.205     -7.190     -7.180     -7.145     -7.129     -7.127     -7.127
                            1  SCC done.
 writing mo output ...
 molden style : F
 
speedup  2.86
cpu  time for all   20 m 24.1 s
wall time for all    7 m  7.9 s
