 
        ______________________________________
       |                                      |
       |           ==================         |
       |                 x T B                |
       |           ==================         |
       |               S. Grimme              |
       |        Universitaet Bonn, MCTC       |
       |         2015-18, Version 5.8.1       |
       |      Sun Jun  3 17:06:45 CEST 2018   |
       |______________________________________|
 
        This code comes without any warranty
        for non-commercial, academia use only.
        Preliminary GFN2 test version.
        Cite GFN-xTB work as:
        S. Grimme, C. Bannwarth, P. Shushkov
        JCTC, 13 (2017) 1989-2009
        for GFN2:
        C. Bannwarth, S. Ehlert, S. Grimme
        to be published.
        sTDA-xTB:
        S. Grimme  &  C. Bannwarth, JCP 145 (2016) 054103
        in the mass-spec context additionally:
        V. Asgeirsson, C.Bauer, S. Grimme, Chem. Sci. 8 (2017) 4879
 
        with help from
        P. Shushkov, G. Brandenburg, S. Dohm, J. Pisarek,
        F. März, M. Checinski, S. Ehrlich, S. Spicher, 
        P. Pracht, E. Caldeweyher, S. Ehlert, and C. Bannwarth.
 
        usage        :
        xtb <coord_file> [options]
        where <coord_file> is a valid file of TM)
        (*coord, Bohr) or xmol (*xyz, Angstroem)
        format.

        options:
        -chrg <int>   : molecular charge
        -uhf  <int>   : # of unpaired electrons(=2*S)
        -nox          : skip second, extended part in sTDA-xTB
        -pop          : do population analysis
                      : (default for -nox)
        -mowr <real>  : cut MO write above (def.3 Eh)
        -molden       : write formatted molden file
        -parx <file>  : read parameters for sTDA-xTB
                        calc (def:~/.param_stda2.xtb)
        -parv <file>  : read parameters for vTB part in
                        sTDA-xTB (def: ~/.param_stda1.xtb)
        -xtemp <real> : el. temp for xTB (def. 0 K)
        -etemp <real> : el. temp for GFN (def. 300 K)
        -fod          : calculate the FOD and write
                        molden.input file with
                        appropriate occupations
                        for plotting. Def. T=12500 K
 
        -gfn1         : use GFN-xTB
        -gfn2         : use GFN2-xTB
        -gfn2d3       : GFN2-xTB with D3 instead of D4
        -grad         : GFNn-xTB gradient
        -acc <real>   : GFNn-xTB accuracy (def. 1.0)
        -opt [level]  : optimize at GFNn-xTB
                      : level=crude,vloose,loose,
                      :       tight,vtight
        -hess         : compute Hessian at GFNn-xTB
        -ohess        : optimize and compute Hessian
        -omd          : optimize and do MD
        -siman        : conformational search
        -screen       : opt. loop over ensemble
        -gmd          : annealed MD for GMD procedure
        -modef        : vib mode following
        -gbsa [string1] [string2]
                        use GBSA implicit solvent
                        for solvent [string1] and
                        solvation state [string2]=
                        reference, bar1M (default=1M)
        additional GFN/opt/MD/siman options read from
        $XTBHOME/.xtbrc or $set in coordinate file
 
       spin and charge state information can be on:
       <.CHRG> (charge) and <.UHF> (=nalpha-nbeta)
       -uhf and -chrg override the file info.
       useful machine settings:
       setenv MKL_NUM_THREADS <NCORE_ON_YOUR_MACHINE>
       setenv OMP_STACKSIZE 500m
       limit stacksize unlimited
 
       total energies in Eh, gaps/HL energies in eV
       please read REVISION and HOWTO files carefully
         180  days left until this code expires
 =============================
  # OMP threads =           8
 =============================
 
 xtbhome directory:/home/karl/Software/xtb2/
 
 
 name of molecule           :
 comment line               :
 number of atoms            :  2016
 number of electrons        :  4896
 charge                     :  0
 spin                       : 0.0
 first test random number   :  0.5754
 
 -----------------------------------------
      charge density (VTB) calculation
 -----------------------------------------
 
      method parameters     
 k(s)        :  1.8000
 k(p)        :  2.8350
 k(d)        :  2.0860
 k(f)        :  2.0000
 Tscal       :  0.3300
 Gscal       :  0.3910
 fpol        :  1.0000
 Zcnf        :  0.6500
 Zqf         :  0.0000
 kcn         :  0.3000
 kEN1        : -0.5900
 wllscal     :  2.6000
 
     -------------------------
     ! NO SOLVENT MODEL USED !
     -------------------------
 
 doing EN charges ...
 sum q : -0.6328271D-14
 point charge moment (au)
     X       Y       Z   
   3.8492  -1.0368   3.3460  total (Debye):   13.229
 
            Z      q(EN)   CN      Cart. coordinates
     1  C   4.0   -0.24    4.03     9.69429    48.30140    31.10489
     2  C   4.0    0.21    3.01    11.31946    50.13443    29.59311
     3  O   6.0   -0.11    1.12    11.45174    49.58641    27.34433
     4  O   6.0   -0.10    1.05    12.49109    51.83518    30.63246
     5  H   1.0    0.08    1.00     8.22031    49.18957    32.23872
     6  H   1.0    0.07    0.99     8.86281    46.67623    30.00885
     7  H   1.0    0.08    1.00    10.92262    47.48881    32.52218
     8  C   4.0   -0.25    4.04    16.98864    11.33836    37.64334
     9  C   4.0    0.22    3.02    14.68317    13.07690    37.47327
    10  O   6.0   -0.13    1.47    15.06112    15.09891    36.32053
    11  O   6.0   -0.12    1.12    12.66116    12.24542    38.21026
    12  H   1.0    0.08    1.00    18.46262    12.01866    38.92835
    13  H   1.0    0.09    1.00    16.38392     9.52422    38.26695
    14  H   1.0    0.07    1.00    17.91460    11.22497    35.77251
    15  C   4.0   -0.26    4.04    34.29853     0.73699     5.65028
    16  C   4.0    0.17    3.01    33.16469    -0.21732     8.06913
    17  O   6.0   -0.09    1.10    34.46860     0.17008    10.07224
    18  O   6.0   -0.09    1.05    30.93481    -1.02990     8.03134
    19  H   1.0    0.08    1.00    33.01351     1.87083     4.49755
    20  H   1.0    0.09    1.00    35.09221    -0.74644     4.53534
    21  H   1.0    0.08    1.00    35.86700     1.98421     6.08492
    22  C   4.0   -0.23    4.02    47.67779     9.42973    38.89056
    23  C   4.0    0.23    3.01    48.66989     6.74632    38.36144
    24  O   6.0   -0.12    1.06    50.86197     6.29279    38.55041
    25  O   6.0   -0.10    1.07    47.12977     5.15895    37.70003
    26  H   1.0    0.07    0.99    46.65733     9.41084    40.76139
    27  H   1.0    0.09    1.00    46.24159     9.97775    37.58665
    28  H   1.0    0.07    0.99    49.35019    10.73364    38.79607
    29  C   4.0   -0.30    4.05    43.91723    23.39481    24.15070
    30  C   4.0    0.19    3.02    43.29362    22.10979    21.65626
    31  O   6.0   -0.08    1.05    41.80074    23.11135    20.03110
    32  O   6.0   -0.12    1.07    43.95503    19.93661    21.54288
    33  H   1.0    0.10    1.00    45.84475    23.20583    24.64203
    34  H   1.0    0.09    1.01    42.72670    22.43105    25.45461
    35  H   1.0    0.11    1.01    43.55818    25.30343    23.92393
    36  C   4.0   -0.28    4.02    10.18562    30.34900    33.78830
    37  C   4.0    0.17    3.01    10.28011    32.54108    31.82298
    38  O   6.0   -0.08    1.06    11.94307    34.24183    32.20093
    39  O   6.0   -0.09    1.05     8.48487    33.05131    30.34900
    40  H   1.0    0.10    1.00     9.42973    31.10489    35.47016
    41  H   1.0    0.08    1.00     9.18407    28.66714    33.16469
    42  H   1.0    0.10    1.00    12.03755    29.74429    34.22294
    43  C   4.0   -0.26    4.03     6.10381    26.13491    46.86520
    44  C   4.0    0.18    3.01     5.44241    24.16959    48.90611
    45  O   6.0   -0.11    1.17     4.32747    22.26097    48.07463
    46  O   6.0   -0.08    1.04     5.99043    24.45305    51.23614
    47  H   1.0    0.09    1.00     4.59203    27.49551    46.90300
    48  H   1.0    0.09    1.00     7.91795    26.98529    47.22425
    49  H   1.0    0.09    1.00     6.21720    25.24674    45.03217
    50  C   4.0   -0.26    4.05     7.93685    38.79607     9.46753
    51  C   4.0    0.23    3.02     5.99043    40.85588     8.93840
    52  O   6.0   -0.11    1.14     3.81725    40.11888     8.57936
    53  O   6.0   -0.13    1.21     6.82191    42.97237     9.01399
    54  H   1.0    0.06    0.99     8.16362    38.73938    11.60292
    55  H   1.0    0.10    1.01     7.16206    37.05753     8.90061
    56  H   1.0    0.09    1.00     9.78878    39.06064     8.69274
    57  C   4.0   -0.24    4.04    18.87836    14.77766    19.95551
    58  C   4.0    0.18    3.02    20.22007    15.91149    17.72563
    59  O   6.0   -0.09    1.05    19.16182    17.72563    16.61069
    60  O   6.0   -0.09    1.06    22.37436    15.06112    17.29099
    61  H   1.0    0.07    1.00    16.91305    15.49575    20.08779
    62  H   1.0    0.08    1.00    18.59490    12.73675    20.08779
    63  H   1.0    0.08    1.00    20.08779    15.23119    21.56177
    64  C   4.0   -0.26    4.03    45.37232    10.22342    46.12821
    65  C   4.0    0.21    3.01    47.14866    11.65961    47.92345
    66  O   6.0   -0.11    1.05    46.60064    11.86748    50.11553
    67  O   6.0   -0.10    1.06    49.06673    12.49109    46.86520
    68  H   1.0    0.07    0.99    44.31407     8.80612    47.31874
    69  H   1.0    0.09    1.01    46.65733     9.29745    44.88099
    70  H   1.0    0.10    1.00    43.99282    11.22497    45.12666
    71  C   4.0   -0.24    4.02    44.03061     9.16517    17.61225
    72  C   4.0    0.19    3.01    41.13933     9.61871    17.32879
    73  O   6.0   -0.09    1.05    39.94881    10.41239    19.19962
    74  O   6.0   -0.10    1.05    40.17557     9.10848    15.25009
    75  H   1.0    0.08    1.00    44.97548    10.97931    17.70673
    76  H   1.0    0.07    0.99    44.99437     8.01244    16.10047
    77  H   1.0    0.09    1.00    44.25738     8.35259    19.46418
    78  C   4.0   -0.23    4.04    26.83411    25.75696     2.22988
    79  C   4.0    0.19    3.02    29.47972    24.83100     2.43775
    80  O   6.0   -0.10    1.07    30.76474    25.70027     4.15740
    81  O   6.0   -0.08    1.05    30.36790    23.52709     0.60471
    82  H   1.0    0.08    1.00    26.85301    27.47662     3.36371
    83  H   1.0    0.07    0.99    26.38057    26.45616     0.28346
    84  H   1.0    0.08    1.00    25.53020    24.32077     2.96687
    85  C   4.0   -0.24    4.02     3.36371    19.59646    34.90324
    86  C   4.0    0.19    3.00     0.66140    18.59490    34.39301
    87  O   6.0   -0.09    1.05     0.22677    16.51620    33.39146
    88  O   6.0   -0.09    1.08    -1.06770    20.22007    34.43081
    89  H   1.0    0.08    1.00     4.81880    18.14137    34.77096
    90  H   1.0    0.07    0.99     4.04401    21.03265    33.52374
    91  H   1.0    0.09    1.00     3.42040    20.48463    36.71738
    92  C   4.0   -0.27    4.03     9.24076    46.65733    39.24961
    93  C   4.0    0.18    3.01     6.50066    47.05418    38.55041
    94  O   6.0   -0.09    1.05     5.80146    48.77383    37.07642
    95  O   6.0   -0.08    1.05     4.79990    45.69357    39.55196
    96  H   1.0    0.10    1.01    10.01555    45.27783    38.04018
    97  H   1.0    0.09    1.00    10.56357    48.13132    38.83387
    98  H   1.0    0.08    1.00     9.46753    46.22270    41.27161
    99  C   4.0   -0.27    4.05    30.40569    37.13311    29.30965
   100  C   4.0    0.20    3.03    32.97572    36.81186    28.25140
   101  O   6.0   -0.12    1.15    33.44815    34.86544    27.09867
   102  O   6.0   -0.09    1.07    34.71427    38.22916    28.98840
   103  H   1.0    0.08    1.00    30.55687    38.90946    30.38679
   104  H   1.0    0.10    1.01    29.17737    37.22760    27.76007
   105  H   1.0    0.09    1.00    29.70649    35.73472    30.61356
   106  C   4.0   -0.29    4.04    29.40414    11.99976    29.83877
   107  C   4.0    0.21    3.02    29.46083    13.73831    27.47662
   108  O   6.0   -0.11    1.13    30.87812    13.28477    25.70027
   109  O   6.0   -0.11    1.12    28.17581    15.64693    27.66559
   110  H   1.0    0.08    1.00    31.38835    11.56512    30.29231
   111  H   1.0    0.12    1.01    28.51596    12.94462    31.25607
   112  H   1.0    0.09    1.00    28.42148    10.29901    29.29075
   113  C   4.0   -0.20    3.98    21.25942     1.30391    20.97596
   114  C   4.0    0.17    3.01    20.74919    -1.31336    22.07200
   115  O   6.0   -0.08    1.05    20.80588    -1.69130    24.45305
   116  O   6.0   -0.09    1.05    20.35235    -3.12750    20.59801
   117  H   1.0    0.06    0.98    20.52242     1.09604    18.91616
   118  H   1.0    0.08    1.00    20.27676     2.75900    22.05310
   119  H   1.0    0.06    0.98    23.39481     1.71965    20.73029
   120  C   4.0   -0.23    4.02    40.11888     1.83303     2.75900
   121  C   4.0    0.19    3.01    42.51883     3.06136     1.71965
   122  O   6.0   -0.10    1.05    43.55818     4.68652     3.00466
   123  O   6.0   -0.08    1.05    42.89678     2.70231    -0.62928
   124  H   1.0    0.08    1.00    39.66535    -0.00945     1.90862
   125  H   1.0    0.08    1.00    40.09998     1.62516     4.79990
   126  H   1.0    0.07    0.99    38.47482     3.11805     2.36216
   127  C   4.0   -0.28    4.04    23.41370    20.25786     7.06758
   128  C   4.0    0.19    3.01    20.84368    21.01375     6.16051
   129  O   6.0   -0.09    1.06    19.01064    20.39014     7.50221
   130  O   6.0   -0.10    1.06    20.63581    22.31766     4.23299
   131  H   1.0    0.07    1.00    24.39636    18.93505     5.78256
   132  H   1.0    0.07    1.00    23.28142    19.16182     8.84392
   133  H   1.0    0.13    1.01    24.52864    21.71295     7.57780
   134  C   4.0   -0.28    4.05    17.74453     4.81880    14.11625
   135  C   4.0    0.19    3.02    19.99330     3.64717    12.81234
   136  O   6.0   -0.10    1.06    21.56177     5.17785    12.01866
   137  O   6.0   -0.09    1.05    20.06889     1.28501    12.56668
   138  H   1.0    0.08    1.00    16.23275     3.43930    14.09736
   139  H   1.0    0.08    1.00    18.14137     5.12116    16.11936
   140  H   1.0    0.11    1.01    17.29099     6.38727    13.05801
   141  C   4.0   -0.21    4.02    36.24494    23.01686    23.88614
   142  C   4.0    0.20    3.02    34.27963    24.62313    22.69561
   143  O   6.0   -0.11    1.18    32.48439    25.41681    24.01842
   144  O   6.0   -0.12    1.48    34.35522    25.07666    20.35235
   145  H   1.0    0.07    1.00    37.79452    22.48774    22.54443
   146  H   1.0    0.07    1.00    37.24650    24.03731    25.41681
   147  H   1.0    0.06    0.99    35.45126    21.25942    24.88769
   148  C   4.0   -0.28    4.04    28.44038    17.19651    12.77455
   149  C   4.0    0.18    3.02    30.21672    18.48152    14.58868
   150  O   6.0   -0.08    1.05    31.19938    20.63581    14.17294
   151  O   6.0   -0.10    1.14    30.42459    17.49886    16.72407
   152  H   1.0    0.10    1.00    29.25296    15.59024    11.90527
   153  H   1.0    0.09    1.01    26.94749    16.59179    13.98397
   154  H   1.0    0.08    1.00    27.40103    18.31144    11.41394
   155  C   4.0   -0.27    4.03    37.41657    48.52816    45.82585
   156  C   4.0    0.19    3.01    37.71893    46.61954    43.67157
   157  O   6.0   -0.11    1.06    37.56775    44.35187    44.04951
   158  O   6.0   -0.09    1.06    38.09688    47.52661    41.49838
   159  H   1.0    0.08    1.00    36.41502    50.26671    45.42901
   160  H   1.0    0.10    1.00    39.23071    48.79272    46.61954
   161  H   1.0    0.09    1.00    36.39612    47.52661    47.26205
   162  C   4.0   -0.24    4.03    26.64514    45.50460    21.97751
   163  C   4.0    0.18    3.02    27.45772    43.29362    20.46573
   164  O   6.0   -0.09    1.06    27.45772    41.13933    21.44839
   165  O   6.0   -0.09    1.06    28.23251    43.57708    18.23586
   166  H   1.0    0.09    1.01    27.91125    46.97859    21.44839
   167  H   1.0    0.07    1.00    24.64203    46.07152    21.76964
   168  H   1.0    0.07    0.99    27.02308    45.20224    24.03731
   169  C   4.0   -0.26    4.03    21.65626    10.73364    29.61201
   170  C   4.0    0.17    3.01    19.70984     8.74943    28.72383
   171  O   6.0   -0.10    1.11    17.74453     8.74943    30.04664
   172  O   6.0   -0.08    1.04    20.25786     7.48331    26.72072
   173  H   1.0    0.08    1.00    21.29721    11.84858    31.31276
   174  H   1.0    0.11    1.01    21.63736    12.01866    28.13802
   175  H   1.0    0.07    1.00    23.54599     9.78878    29.61201
   176  C   4.0   -0.22    4.02    31.04820     8.42818     3.60938
   177  C   4.0    0.19    3.02    31.50173    10.52577     5.53690
   178  O   6.0   -0.08    1.05    33.76940    11.24387     5.99043
   179  O   6.0   -0.12    1.24    29.61201    11.31946     6.65184
   180  H   1.0    0.07    1.00    29.63090     7.27544     4.64873
   181  H   1.0    0.07    0.99    32.52218     6.95419     3.38261
   182  H   1.0    0.07    1.00    30.10333     8.99510     1.83303
   183  C   4.0   -0.24    4.04    26.39947    41.49838    39.91101
   184  C   4.0    0.19    3.02    28.44038    39.70314    39.17402
   185  O   6.0   -0.10    1.17    27.79787    37.79452    37.90790
   186  O   6.0   -0.10    1.06    30.61356    40.11888    39.96770
   187  H   1.0    0.08    1.00    24.62313    41.53618    38.89056
   188  H   1.0    0.07    0.99    26.13491    41.61177    42.00861
   189  H   1.0    0.08    1.00    27.17426    43.36921    39.55196
   190  C   4.0   -0.27    4.05    26.77742    43.14244    33.39146
   191  C   4.0    0.21    3.01    24.41526    44.76761    33.52374
   192  O   6.0   -0.11    1.06    24.49085    46.86520    34.41191
   193  O   6.0   -0.10    1.07    22.48774    43.69046    32.73005
   194  H   1.0    0.08    1.00    28.23251    44.16290    34.43081
   195  H   1.0    0.09    1.00    26.56955    41.42279    34.43081
   196  H   1.0    0.09    1.00    27.41992    42.67001    31.53953
   197  C   4.0   -0.25    4.03    45.46681    49.01949     2.21098
   198  C   4.0    0.18    3.01    47.93290    47.84786     1.43619
   199  O   6.0   -0.09    1.09    47.82896    45.84475     0.17008
   200  O   6.0   -0.09    1.05    49.91711    48.96280     2.07870
   201  H   1.0    0.07    0.99    45.76916    51.09819     1.87083
   202  H   1.0    0.09    1.00    45.18335    48.66044     4.19519
   203  H   1.0    0.09    1.00    43.95503    48.28250     1.07714
   204  C   4.0   -0.29    4.05    23.69716    34.44970    24.32077
   205  C   4.0    0.21    3.02    21.03265    35.03552    25.15225
   206  O   6.0   -0.11    1.20    20.67360    34.43081    27.38213
   207  O   6.0   -0.11    1.14    19.35079    35.69692    23.67827
   208  H   1.0    0.07    1.00    24.30188    35.88590    22.92238
   209  H   1.0    0.11    1.01    24.92549    34.50640    25.83255
   210  H   1.0    0.10    1.00    23.90503    32.54108    23.81055
   211  C   4.0   -0.25    4.03    28.47817    33.27807     3.36371
   212  C   4.0    0.21    3.01    25.88925    34.61978     3.76055
   213  O   6.0   -0.10    1.06    25.64358    36.54730     2.51334
   214  O   6.0   -0.11    1.22    24.18849    33.61822     5.04557
   215  H   1.0    0.09    1.00    29.91436    34.60088     2.77790
   216  H   1.0    0.08    1.00    29.12068    32.21983     5.00777
   217  H   1.0    0.08    1.00    28.45927    31.89857     1.85193
   218  C   4.0   -0.24    4.02    35.50795    51.19268    33.05131
   219  C   4.0    0.18    3.01    32.69226    51.32496    32.44659
   220  O   6.0   -0.09    1.05    31.59622    53.35641    32.90013
   221  O   6.0   -0.09    1.05    31.55842    49.28405    31.95527
   222  H   1.0    0.09    1.00    36.50951    50.24781    31.55842
   223  H   1.0    0.08    1.00    36.26384    53.09185    33.08910
   224  H   1.0    0.06    0.98    36.03707    50.09663    34.84655
   225  C   4.0   -0.33    4.04    26.92859    26.30499    39.74094
   226  C   4.0    0.18    3.02    28.13802    24.77431    37.66224
   227  O   6.0   -0.08    1.05    29.76318    25.81366    36.22605
   228  O   6.0   -0.10    1.14    27.34433    22.60112    37.17091
   229  H   1.0    0.12    1.01    28.11912    27.36323    40.83698
   230  H   1.0    0.10    1.01    25.47351    27.40103    38.96615
   231  H   1.0    0.10    1.01    26.04042    24.98218    40.91257
   232  C   4.0   -0.25    4.03    30.31120    28.95060    47.60220
   233  C   4.0    0.20    3.02    31.59622    30.68915    45.61798
   234  O   6.0   -0.10    1.11    33.92058    30.42459    45.20224
   235  O   6.0   -0.11    1.07    30.34900    32.50329    44.93768
   236  H   1.0    0.08    1.00    31.82298    27.62779    47.99904
   237  H   1.0    0.08    1.00    29.89546    30.02775    49.30295
   238  H   1.0    0.08    1.00    28.83722    27.94905    46.60064
   239  C   4.0   -0.21    4.01     3.62827    24.81210     9.99665
   240  C   4.0    0.17    3.00     1.64406    26.43727    11.41394
   241  O   6.0   -0.09    1.04     0.52912    28.21361    10.31790
   242  O   6.0   -0.08    1.05     1.37950    25.87035    13.73831
   243  H   1.0    0.07    1.00     4.19519    25.96483     8.35259
   244  H   1.0    0.06    0.99     5.31013    24.32077    11.24387
   245  H   1.0    0.07    1.00     2.83459    23.03576     9.22186
   246  C   4.0   -0.27    4.04    22.26097     7.36993    34.97883
   247  C   4.0    0.19    3.02    22.12869     6.42507    37.62444
   248  O   6.0   -0.13    1.43    21.58067     4.17629    38.09688
   249  O   6.0   -0.08    1.11    22.60112     8.16362    39.26851
   250  H   1.0    0.08    1.00    22.10979     9.41084    34.69537
   251  H   1.0    0.06    0.99    24.15070     6.84081    34.07176
   252  H   1.0    0.12    1.01    20.91927     6.36838    34.03396
   253  C   4.0   -0.28    4.04    15.51465    41.87633     7.86126
   254  C   4.0    0.22    3.02    17.29099    42.65111    10.01555
   255  O   6.0   -0.11    1.07    16.95084    41.47948    11.98086
   256  O   6.0   -0.13    1.20    18.87836    44.27628     9.71319
   257  H   1.0    0.07    1.00    15.83590    39.79763     7.63449
   258  H   1.0    0.09    1.00    13.58713    42.29207     8.31479
   259  H   1.0    0.12    1.01    16.17605    42.82119     6.31168
   260  C   4.0   -0.25    4.03    30.61356    47.99904     0.13228
   261  C   4.0    0.18    3.01    28.17581    47.62109    -1.32848
   262  O   6.0   -0.10    1.12    28.19471    46.09042    -3.12372
   263  O   6.0   -0.08    1.04    26.24829    48.88721    -0.62928
   264  H   1.0    0.08    1.00    31.63401    49.66200    -0.53479
   265  H   1.0    0.08    1.00    31.89857    46.39277    -0.08126
   266  H   1.0    0.08    1.00    30.14113    48.30140     2.09760
   267  C   4.0   -0.27    4.03     7.38883    30.57577    11.05490
   268  C   4.0    0.19    3.02     9.63760    29.83877     9.42973
   269  O   6.0   -0.11    1.06    11.05490    31.48283     8.63605
   270  O   6.0   -0.10    1.21     9.95886    27.53331     8.78723
   271  H   1.0    0.10    1.00     6.95419    32.52218    11.11159
   272  H   1.0    0.07    1.00     5.72587    29.34744    10.63916
   273  H   1.0    0.09    1.00     7.86126    30.16003    12.96352
   274  C   4.0   -0.30    4.04     2.85349    26.21050    39.41968
   275  C   4.0    0.17    3.01     4.68652    28.45927    39.34409
   276  O   6.0   -0.09    1.05     6.57625    28.38368    40.79918
   277  O   6.0   -0.08    1.05     4.06291    30.21672    37.83231
   278  H   1.0    0.11    1.00     1.62516    26.17270    37.90790
   279  H   1.0    0.10    1.00     3.68497    24.41526    39.38189
   280  H   1.0    0.08    1.00     1.75745    26.28609    41.13933
   281  C   4.0   -0.26    4.04    16.66738    17.42327    42.80229
   282  C   4.0    0.20    3.02    15.38237    19.08623    44.78650
   283  O   6.0   -0.10    1.17    16.10047    21.33501    45.01327
   284  O   6.0   -0.10    1.06    13.53044    18.19806    45.86365
   285  H   1.0    0.08    1.00    17.36658    15.74142    43.78495
   286  H   1.0    0.10    1.00    18.10357    18.34924    41.76294
   287  H   1.0    0.08    1.00    15.13670    16.66738    41.63066
   288  C   4.0   -0.26    4.05    45.24004    44.93768    16.62959
   289  C   4.0    0.18    3.02    43.84164    44.31407    14.36192
   290  O   6.0   -0.09    1.06    42.14089    45.75027    13.54934
   291  O   6.0   -0.08    1.06    44.33297    42.23537    13.26588
   292  H   1.0    0.09    1.00    45.58019    43.38811    17.87681
   293  H   1.0    0.08    1.00    44.23848    46.46836    17.59335
   294  H   1.0    0.09    1.00    47.09197    45.69357    16.23275
   295  C   4.0   -0.26    4.06    38.83387    11.26277    33.33477
   296  C   4.0    0.19    3.03    38.56931    12.81234    35.54575
   297  O   6.0   -0.09    1.06    39.51417    12.13204    37.60555
   298  O   6.0   -0.10    1.15    37.30319    14.81545    35.26229
   299  H   1.0    0.09    1.00    37.01973    10.63916    32.69226
   300  H   1.0    0.07    1.00    39.53307    12.54778    31.78519
   301  H   1.0    0.09    1.00    40.04329     9.67540    33.58043
   302  C   4.0   -0.25    4.04    13.94618    40.45903    44.97548
   303  C   4.0    0.19    3.02    16.21385    39.96770    43.35031
   304  O   6.0   -0.09    1.05    18.25475    41.04485    43.93613
   305  O   6.0   -0.10    1.09    15.79811    38.60710    41.47948
   306  H   1.0    0.08    1.00    12.15094    39.68424    44.27628
   307  H   1.0    0.08    1.00    13.98397    39.85432    46.95969
   308  H   1.0    0.09    1.00    13.47375    42.42435    44.88099
   309  C   4.0   -0.24    4.02    41.25272    51.32496    26.56955
   310  C   4.0    0.18    3.01    42.49994    49.11398    25.24674
   311  O   6.0   -0.09    1.06    41.08264    47.33764    24.58533
   312  O   6.0   -0.09    1.05    44.76761    49.18957    24.60423
   313  H   1.0    0.07    0.99    40.91257    50.64466    28.55376
   314  H   1.0    0.08    1.00    42.49994    52.97847    26.34278
   315  H   1.0    0.09    1.00    39.58976    51.95801    25.60579
   316  C   4.0   -0.28    4.02    28.02464    51.89187    23.07355
   317  C   4.0    0.20    3.01    30.08444    53.20523    21.48618
   318  O   6.0   -0.11    1.19    31.99306    52.01471    20.80588
   319  O   6.0   -0.09    1.05    29.78208    55.39732    20.71140
   320  H   1.0    0.08    1.00    27.19316    53.07295    24.54754
   321  H   1.0    0.10    1.00    26.60734    51.19268    21.88303
   322  H   1.0    0.09    1.00    28.79942    50.36120    24.11290
   323  C   4.0   -0.23    4.01     2.38105    31.87968    44.95658
   324  C   4.0    0.19    3.00     1.54958    34.67647    45.25894
   325  O   6.0   -0.10    1.05     0.05669    35.45126    43.63377
   326  O   6.0   -0.09    1.04     2.43775    36.09377    46.94079
   327  H   1.0    0.08    1.00     3.47710    31.78519    43.19914
   328  H   1.0    0.07    0.99     3.79835    31.31276    46.41167
   329  H   1.0    0.07    1.00     0.88817    30.42459    44.93768
   330  C   4.0   -0.25    4.04    44.35187     6.00933    31.40725
   331  C   4.0    0.19    3.01    42.04640     5.51800    29.74429
   332  O   6.0   -0.08    1.05    42.00861     6.53845    27.57110
   333  O   6.0   -0.11    1.06    40.40234     4.19519    30.67025
   334  H   1.0    0.08    1.00    44.04951     5.17785    33.25918
   335  H   1.0    0.09    1.00    46.07152     5.21564    30.74584
   336  H   1.0    0.07    1.00    44.54084     8.06913    31.70960
   337  C   4.0   -0.26    4.05    39.26851    36.45281    14.19184
   338  C   4.0    0.18    3.02    40.09998    35.67803    16.81856
   339  O   6.0   -0.10    1.14    40.09998    37.20870    18.67049
   340  O   6.0   -0.10    1.07    41.17713    33.59933    16.76187
   341  H   1.0    0.08    1.00    40.59131    37.94570    13.64382
   342  H   1.0    0.09    1.00    39.43858    34.92214    12.86903
   343  H   1.0    0.09    1.00    37.35988    37.15201    14.32412
   344  C   4.0   -0.22    4.02    13.54934    11.65961    15.64693
   345  C   4.0    0.20    3.03    12.43440    11.84858    18.27365
   346  O   6.0   -0.10    1.06    12.56668    10.11003    19.80433
   347  O   6.0   -0.11    1.12    11.28166    13.81390    18.80277
   348  H   1.0    0.07    1.00    15.60914    12.01866    15.83590
   349  H   1.0    0.06    0.99    12.69896    13.05801    14.24853
   350  H   1.0    0.08    1.01    12.92573     9.73209    15.28788
   351  C   4.0   -0.27    4.04    32.44659    37.32209     8.12582
   352  C   4.0    0.18    3.01    33.12690    35.92369    10.56357
   353  O   6.0   -0.09    1.05    32.54108    37.05753    12.56668
   354  O   6.0   -0.10    1.12    33.99617    33.71271    10.31790
   355  H   1.0    0.08    1.00    33.22138    36.62289     6.36838
   356  H   1.0    0.07    1.00    30.36790    37.52996     8.08803
   357  H   1.0    0.11    1.01    33.20248    39.11733     8.33369
   358  C   4.0   -0.25    4.04    44.42746    38.34254    34.80875
   359  C   4.0    0.21    3.02    45.92034    40.53462    33.95838
   360  O   6.0   -0.12    1.11    45.27783    42.65111    34.54419
   361  O   6.0   -0.10    1.10    47.73448    40.19447    32.48439
   362  H   1.0    0.09    1.01    43.59598    37.51106    33.16469
   363  H   1.0    0.07    1.00    45.71247    36.96304    35.71582
   364  H   1.0    0.08    1.00    42.99127    38.87166    36.22605
   365  C   4.0   -0.26    4.03    45.33453    25.81366    46.73292
   366  C   4.0    0.19    3.02    43.12355    24.09401    47.07307
   367  O   6.0   -0.11    1.32    42.15979    23.26253    45.03217
   368  O   6.0   -0.09    1.05    42.49994    23.26253    49.17067
   369  H   1.0    0.10    1.00    44.72981    27.59000    46.07152
   370  H   1.0    0.09    1.00    46.56285    25.07666    45.31563
   371  H   1.0    0.06    0.99    46.26049    25.79476    48.66044
   372  C   4.0   -0.24    4.02    18.04688    21.61846    22.27987
   373  C   4.0    0.16    3.01    19.14292    21.48618    24.94438
   374  O   6.0   -0.09    1.06    18.42483    19.59646    26.19160
   375  O   6.0   -0.08    1.04    20.56022    23.26253    25.85145
   376  H   1.0    0.10    1.01    19.33190    22.39325    20.99486
   377  H   1.0    0.08    1.00    17.66894    19.67205    21.67516
   378  H   1.0    0.06    0.98    16.15716    22.69561    22.16649
   379  C   4.0   -0.23    4.03    13.03911    11.24387     2.05980
   380  C   4.0    0.18    3.01    15.59024    11.30056     3.21253
   381  O   6.0   -0.09    1.06    16.40282     9.31635     4.21409
   382  O   6.0   -0.08    1.05    16.96974    13.22808     2.83459
   383  H   1.0    0.08    1.00    12.77455    12.32101     0.30236
   384  H   1.0    0.07    1.00    12.58557     9.27855     1.47399
   385  H   1.0    0.08    1.00    11.47064    11.71630     3.34481
   386  C   4.0   -0.23    4.00     9.76988     7.31324     8.69274
   387  C   4.0    0.17    3.01     7.33214     5.68808     8.52266
   388  O   6.0   -0.09    1.04     7.50221     3.42040     7.82347
   389  O   6.0   -0.09    1.05     5.25344     6.67073     9.16517
   390  H   1.0    0.06    0.98    10.90372     6.93529    10.52577
   391  H   1.0    0.10    1.00    10.97931     6.99199     7.16206
   392  H   1.0    0.07    1.00     9.20297     9.33525     8.52266
   393  C   4.0   -0.28    4.04    44.86209    18.59490    11.13049
   394  C   4.0    0.19    3.02    42.44324    17.87681     9.76988
   395  O   6.0   -0.10    1.06    42.70781    16.68628     7.76677
   396  O   6.0   -0.10    1.06    40.40234    18.67049    10.58247
   397  H   1.0    0.08    1.00    44.25738    19.38859    12.92573
   398  H   1.0    0.09    1.00    46.10931    17.08312    11.60292
   399  H   1.0    0.11    1.01    45.82585    19.95551    10.09114
   400  C   4.0   -0.25    4.03     3.08025    20.52242    27.30654
   401  C   4.0    0.20    3.01     5.95264    20.74919    26.98529
   402  O   6.0   -0.11    1.14     7.08647    19.06733    25.83255
   403  O   6.0   -0.10    1.10     6.97309    22.67671    27.89236
   404  H   1.0    0.07    1.00     2.30547    19.52087    25.62468
   405  H   1.0    0.09    1.00     2.66451    19.63425    29.08288
   406  H   1.0    0.09    1.00     2.26767    22.39325    27.32544
   407  C   4.0   -0.26    4.03    39.24961    35.11111    30.91592
   408  C   4.0    0.19    3.02    41.15823    33.01351    31.14268
   409  O   6.0   -0.09    1.12    40.38344    30.93481    32.08755
   410  O   6.0   -0.11    1.11    43.33142    33.33477    30.38679
   411  H   1.0    0.09    1.00    40.08109    36.60399    29.80098
   412  H   1.0    0.11    1.01    37.81342    34.31742    29.83877
   413  H   1.0    0.06    0.99    38.41813    35.90479    32.73005
   414  C   4.0   -0.25    4.01    28.59155    12.15094    47.99904
   415  C   4.0    0.17    3.01    29.08288    14.60758    46.54395
   416  O   6.0   -0.09    1.05    31.19938    15.66583    46.78961
   417  O   6.0   -0.08    1.05    27.45772    15.42016    44.95658
   418  H   1.0    0.11    1.00    26.85301    11.37615    47.50771
   419  H   1.0    0.07    0.99    29.85767    10.52577    47.45102
   420  H   1.0    0.07    1.00    28.83722    12.43440    50.05884
   421  C   4.0   -0.24    4.03    32.74895     3.49599    47.75337
   422  C   4.0    0.18    3.01    31.80409     4.76211    45.39122
   423  O   6.0   -0.09    1.05    33.31587     5.12116    43.61487
   424  O   6.0   -0.08    1.05    29.47972     5.36682    45.33453
   425  H   1.0    0.08    1.00    31.91747     4.17629    49.52972
   426  H   1.0    0.08    1.00    34.80875     3.47710    47.88566
   427  H   1.0    0.08    1.00    32.20093     1.51178    47.69668
   428  C   4.0   -0.25    4.04     8.56046    15.96818    10.46908
   429  C   4.0    0.18    3.02     6.48176    15.04222     8.88171
   430  O   6.0   -0.09    1.06     4.30858    14.96663     9.84547
   431  O   6.0   -0.10    1.14     6.85971    14.38081     6.61404
   432  H   1.0    0.09    1.00    10.28011    15.74142     9.39194
   433  H   1.0    0.07    1.00     8.48487    18.04688    10.75254
   434  H   1.0    0.08    1.00     8.82502    14.94773    12.22653
   435  C   4.0   -0.24    4.02    47.18646     4.68652    24.03731
   436  C   4.0    0.20    3.01    49.44468     6.25499    24.98218
   437  O   6.0   -0.10    1.06    51.39110     5.21564    25.66248
   438  O   6.0   -0.09    1.06    49.29350     8.59825    25.09556
   439  H   1.0    0.09    1.00    46.41167     3.38261    25.37902
   440  H   1.0    0.07    1.00    45.71247     6.19830    23.99952
   441  H   1.0    0.08    1.00    47.60220     4.08181    22.10979
   442  C   4.0   -0.25    4.02    18.14137    50.58796    49.11398
   443  C   4.0    0.20    3.00    16.36503    48.64155    50.41789
   444  O   6.0   -0.10    1.08    14.81545    47.52661    49.05729
   445  O   6.0   -0.10    1.05    16.64849    48.11242    52.65343
   446  H   1.0    0.08    1.00    17.47997    51.11709    47.22425
   447  H   1.0    0.08    1.00    19.97440    49.68090    48.90611
   448  H   1.0    0.09    1.00    18.17916    52.31706    50.17222
   449  C   4.0   -0.25    4.03    20.27676    30.33010    18.87836
   450  C   4.0    0.18    3.02    21.93972    30.55687    16.55400
   451  O   6.0   -0.11    1.12    20.91927    30.12223    14.49420
   452  O   6.0   -0.08    1.05    24.24518    31.18048    16.83746
   453  H   1.0    0.09    1.01    21.69405    30.10333    20.31455
   454  H   1.0    0.07    1.00    18.97285    31.93637    19.16182
   455  H   1.0    0.08    1.00    19.35079    28.49707    18.80277
   456  C   4.0   -0.24    4.04     7.19986    27.76007    20.22007
   457  C   4.0    0.20    3.01     9.58091    29.40414    20.08779
   458  O   6.0   -0.10    1.05     9.29745    31.67181    20.57912
   459  O   6.0   -0.10    1.06    11.48953    28.21361    19.48307
   460  H   1.0    0.08    1.00     5.72587    27.91125    18.78388
   461  H   1.0    0.09    1.00     7.76677    25.83255    20.01220
   462  H   1.0    0.06    0.99     6.21720    28.17581    22.07200
   463  C   4.0   -0.24    4.02    10.22342     3.11805    14.92883
   464  C   4.0    0.18    3.00     8.46597     1.30391    16.44062
   465  O   6.0   -0.09    1.05     9.44863     0.03779    18.19806
   466  O   6.0   -0.09    1.05     6.16051     1.30391    15.96818
   467  H   1.0    0.09    1.00    10.73364     4.64873    16.17605
   468  H   1.0    0.08    1.00    12.01866     2.11649    14.66427
   469  H   1.0    0.07    0.99     9.52422     4.06291    13.19029
   470  C   4.0   -0.24    4.06    20.31455    26.62624    40.61021
   471  C   4.0    0.19    3.02    19.06733    28.25140    38.73938
   472  O   6.0   -0.11    1.11    17.93350    27.41992    36.86855
   473  O   6.0   -0.09    1.08    19.01064    30.51907    39.49527
   474  H   1.0    0.08    1.00    18.87836    25.85145    41.85743
   475  H   1.0    0.07    0.99    21.65626    27.81677    41.76294
   476  H   1.0    0.09    1.00    21.44839    25.19005    39.72204
   477  C   4.0   -0.31    4.04    43.46370    33.41035    48.49037
   478  C   4.0    0.16    3.01    40.89367    34.65757    48.98170
   479  O   6.0   -0.09    1.07    39.36299    34.97883    47.14866
   480  O   6.0   -0.09    1.12    40.70470    35.71582    51.16055
   481  H   1.0    0.09    1.00    44.71092    34.77096    47.65889
   482  H   1.0    0.11    1.00    44.46525    32.95682    50.09663
   483  H   1.0    0.11    1.01    43.04796    31.95527    47.24315
   484  C   4.0   -0.26    4.04     5.51800    43.52039    16.02488
   485  C   4.0    0.19    3.03     5.85815    42.76450    18.72718
   486  O   6.0   -0.11    1.21     3.96842    41.81964    19.72874
   487  O   6.0   -0.09    1.05     7.95575    42.97237    19.84212
   488  H   1.0    0.08    1.00     6.80301    45.06996    15.60914
   489  H   1.0    0.08    1.01     5.97153    41.68735    15.17450
   490  H   1.0    0.10    1.01     3.60938    44.12510    15.93039
   491  C   4.0   -0.21    4.00    11.64071    36.49061     3.51489
   492  C   4.0    0.17    3.01    12.90683    35.41346     1.13384
   493  O   6.0   -0.09    1.05    11.60292    33.97727    -0.23244
   494  O   6.0   -0.08    1.04    15.13670    36.15046     0.58582
   495  H   1.0    0.08    1.00    10.50688    38.15357     3.04246
   496  H   1.0    0.07    0.99    10.60136    34.95993     4.55424
   497  H   1.0    0.06    0.98    13.28477    37.15201     4.79990
   498  C   4.0   -0.25    4.02    11.92417     3.55268    48.52816
   499  C   4.0    0.19    3.01    10.26121     4.87549    46.56285
   500  O   6.0   -0.11    1.06    11.39505     6.10381    44.97548
   501  O   6.0   -0.09    1.05     7.89905     4.93218    46.92190
   502  H   1.0    0.08    1.00    10.84703     2.22988    49.66200
   503  H   1.0    0.10    1.01    13.17139     2.49444    47.41322
   504  H   1.0    0.06    0.99    13.09580     4.83770    49.81318
   505  C   4.0   -0.16    4.08    43.27472    10.54467     5.53690
   506  N   5.0   -0.23    3.99    43.01016     9.61871     8.27700
   507  H   1.0    0.08    1.00    45.24004    10.60136     4.83770
   508  H   1.0    0.07    0.99    42.76450    12.58557     5.29123
   509  H   1.0    0.07    0.99    42.15979     9.27855     4.25188
   510  C   4.0   -0.18    4.09    40.30785    10.52577     9.01399
   511  H   1.0    0.07    0.99    39.40079    10.28011    10.88482
   512  H   1.0    0.10    1.00    39.04174     9.58091     7.82347
   513  H   1.0    0.05    0.97    39.77873    12.64227     8.61715
   514  C   4.0   -0.17    4.06    43.02906     6.72742     8.48487
   515  H   1.0    0.10    1.00    44.78650     5.93374     7.99354
   516  H   1.0    0.05    0.97    42.55663     6.00933    10.52577
   517  H   1.0    0.08    1.00    41.70625     5.82036     7.14316
   518  C   4.0   -0.15    4.12    44.84320    10.84703    10.14783
   519  H   1.0    0.08    1.01    44.31407    12.85014    10.14783
   520  H   1.0    0.13    1.01    44.35187    10.41239    11.94307
   521  C   4.0   -0.16    4.03    47.60220    10.63916     9.80768
   522  H   1.0    0.08    1.00    48.10297    11.31946     7.89905
   523  H   1.0    0.14    1.01    48.04628     8.82502     9.63760
   524  O   6.0   -0.15    2.00    48.95335    11.84858    11.67851
   525  H   1.0    0.09    0.99    50.20057    13.02021    10.75254
   526  C   4.0   -0.15    4.08    34.26073    45.05107    37.00083
   527  N   5.0   -0.25    3.99    35.99928    42.89678    36.07487
   528  H   1.0    0.06    0.98    33.56153    46.18490    35.26229
   529  H   1.0    0.08    1.00    35.03552    46.43057    38.36144
   530  H   1.0    0.08    1.00    32.67336    44.08731    37.94570
   531  C   4.0   -0.21    4.15    37.05753    41.66846    38.36144
   532  H   1.0    0.07    0.99    35.81031    40.91257    39.89211
   533  H   1.0    0.10    1.00    38.15357    40.02440    38.11577
   534  H   1.0    0.11    1.01    38.13467    42.89678    39.45748
   535  C   4.0   -0.19    4.10    34.33632    40.76139    34.90324
   536  H   1.0    0.10    1.00    35.39457    39.09843    34.54419
   537  H   1.0    0.08    1.00    32.80564    40.19447    36.20715
   538  H   1.0    0.07    0.99    33.58043    41.32831    32.99462
   539  C   4.0   -0.11    4.09    37.98349    43.95503    34.27963
   540  H   1.0    0.09    1.01    38.92835    42.40545    33.35366
   541  H   1.0    0.08    1.00    37.00083    44.93768    32.73005
   542  C   4.0   -0.12    4.02    40.25116    45.58019    35.31898
   543  H   1.0    0.09    1.00    39.57086    47.12977    36.43392
   544  H   1.0    0.09    1.00    41.38500    44.44635    36.58509
   545  O   6.0   -0.13    1.99    42.04640    46.14711    33.44815
   546  H   1.0    0.08    1.01    43.67157    45.16445    34.07176
   547  C   4.0   -0.21    4.11    29.51752    49.73759    14.83435
   548  N   5.0   -0.25    4.00    26.77742    50.19112    13.94618
   549  H   1.0    0.10    1.00    29.63090    47.86676    15.53355
   550  H   1.0    0.08    1.00    31.06709    50.05884    13.47375
   551  H   1.0    0.09    1.00    29.91436    51.07929    16.28944
   552  C   4.0   -0.20    4.10    25.00107    50.09663    16.19495
   553  H   1.0    0.07    0.99    24.67982    48.24470    17.12092
   554  H   1.0    0.10    1.00    25.26564    51.58952    17.46107
   555  H   1.0    0.08    1.00    23.13025    50.77694    15.66583
   556  C   4.0   -0.15    4.08    26.79631    52.80839    12.71786
   557  H   1.0    0.07    1.00    24.84990    53.35641    12.16984
   558  H   1.0    0.06    0.99    28.10022    52.84619    10.99821
   559  H   1.0    0.07    0.99    27.19316    54.37686    14.07846
   560  C   4.0   -0.07    4.10    26.07822    48.11242    12.09425
   561  H   1.0    0.07    1.00    27.74118    47.84786    10.82813
   562  H   1.0    0.06    0.98    26.36168    46.22270    13.19029
   563  C   4.0   -0.14    4.01    23.43260    48.22581    10.77144
   564  H   1.0    0.11    1.01    22.09090    48.37698    12.18873
   565  H   1.0    0.08    1.00    23.30032    49.98325     9.69429
   566  O   6.0   -0.13    1.99    23.16804    46.07152     9.18407
   567  H   1.0    0.09    1.11    21.41060    45.16445     9.37304
   568  C   4.0   -0.15    4.09    21.59957     9.88327    45.63688
   569  N   5.0   -0.23    3.98    19.01064     8.61715    46.05262
   570  H   1.0    0.08    1.00    22.07200    11.18718    47.18646
   571  H   1.0    0.07    0.99    23.24363     8.54156    45.37232
   572  H   1.0    0.07    0.99    21.56177    11.01710    43.82274
   573  C   4.0   -0.17    4.12    19.08623     7.63449    48.69824
   574  H   1.0    0.08    1.00    17.63114     6.51955    49.62420
   575  H   1.0    0.08    1.00    20.86257     6.67073    49.09508
   576  H   1.0    0.07    0.99    19.04844     9.22186    50.09663
   577  C   4.0   -0.19    4.08    16.98864    10.73364    46.05262
   578  H   1.0    0.09    1.00    17.42327    12.13204    47.46992
   579  H   1.0    0.06    0.98    15.08001     9.71319    46.26049
   580  H   1.0    0.10    1.00    17.12092    11.64071    44.27628
   581  C   4.0   -0.08    4.06    18.48152     6.53845    43.97392
   582  H   1.0    0.06    0.99    16.51620     5.63138    44.35187
   583  H   1.0    0.08    1.00    18.19806     7.48331    42.12199
   584  C   4.0   -0.11    4.02    19.99330     4.15740    43.55818
   585  H   1.0    0.07    1.00    20.16338     3.06136    45.35342
   586  H   1.0    0.09    1.01    21.86413     4.95108    43.40701
   587  O   6.0   -0.12    1.99    18.97285     2.83459    41.46059
   588  H   1.0    0.09    1.35    20.22007     3.34481    39.98660
   589  C   4.0   -0.17    4.15    10.79034    13.37926    25.07666
   590  N   5.0   -0.27    4.01    12.90683    15.15560    25.79476
   591  H   1.0    0.09    1.00    10.62026    11.84858    26.39947
   592  H   1.0    0.08    1.00    10.67695    12.47219    23.18694
   593  H   1.0    0.08    1.00     8.97620    14.39971    25.34122
   594  C   4.0   -0.14    4.10    15.38237    13.81390    25.53020
   595  H   1.0    0.06    0.99    15.42016    12.71786    23.65937
   596  H   1.0    0.08    1.00    16.89415    15.25009    25.37902
   597  H   1.0    0.07    0.99    15.55244    12.45329    27.15536
   598  C   4.0   -0.16    4.15    12.79344    17.19651    23.81055
   599  H   1.0    0.08    1.00    10.94151    18.16027    23.88614
   600  H   1.0    0.08    1.00    12.88793    16.72407    21.78854
   601  H   1.0    0.07    0.99    14.11625    18.76498    24.43416
   602  C   4.0   -0.11    4.12    12.39660    16.32723    28.34589
   603  H   1.0    0.09    1.01    13.60603    17.95240    28.57266
   604  H   1.0    0.09    1.01    10.52577    17.13981    28.59155
   605  C   4.0   -0.11    4.01    12.69896    14.72097    30.82143
   606  H   1.0    0.07    1.00    11.43284    13.03911    30.87812
   607  H   1.0    0.09    1.00    14.49420    13.77610    31.01040
   608  O   6.0   -0.11    1.93    12.18873    16.19495    32.97572
   609  H   1.0    0.07    1.32    13.51154    15.53355    34.46860
   610  C   4.0   -0.19    4.15     7.27544    29.81988     3.28812
   611  N   5.0   -0.25    4.00     4.98888    31.38835     3.09915
   612  H   1.0    0.07    0.99     8.97620    30.93481     3.98732
   613  H   1.0    0.10    1.00     7.61560    28.83722     1.58737
   614  H   1.0    0.10    1.00     7.08647    28.32699     4.59203
   615  C   4.0   -0.20    4.12     5.66918    33.35366     1.09604
   616  H   1.0    0.09    1.00     6.36838    32.78675    -0.70487
   617  H   1.0    0.07    1.00     7.21875    34.48750     1.94642
   618  H   1.0    0.10    1.00     4.13850    34.63868     1.00155
   619  C   4.0   -0.16    4.11     2.74010    29.76318     2.38105
   620  H   1.0    0.08    1.00     1.03935    30.84033     2.00311
   621  H   1.0    0.07    0.99     3.13695    28.79942     0.51023
   622  H   1.0    0.08    1.00     2.28657    28.13802     3.60938
   623  C   4.0   -0.19    4.14     4.23299    32.48439     5.74477
   624  H   1.0    0.15    1.02     3.51489    31.16158     6.84081
   625  H   1.0    0.09    1.01     5.97153    33.03241     6.67073
   626  C   4.0   -0.10    4.02     2.64562    34.78985     5.97153
   627  H   1.0    0.08    1.00     0.77479    34.27963     5.23454
   628  H   1.0    0.07    1.00     3.83614    36.18825     4.87549
   629  O   6.0   -0.12    1.98     2.55113    35.45126     8.61715
   630  H   1.0    0.08    1.05     2.96687    37.41657     8.46597
   631  C   4.0   -0.17    4.16    21.54288    21.82633    48.35809
   632  N   5.0   -0.25    3.99    23.30032    19.97440    47.22425
   633  H   1.0    0.07    0.99    21.99641    23.86724    47.90455
   634  H   1.0    0.09    1.00    19.55866    21.75075    47.98014
   635  H   1.0    0.08    1.00    21.80744    21.90192    50.41789
   636  C   4.0   -0.11    4.05    23.30032    20.37125    44.37077
   637  H   1.0    0.06    0.99    24.32077    22.24207    44.04951
   638  H   1.0    0.05    0.97    24.47195    18.80277    43.31252
   639  H   1.0    0.06    0.98    21.25942    20.56022    43.63377
   640  C   4.0   -0.17    4.11    25.83255    20.48463    48.49037
   641  H   1.0    0.08    1.00    27.38213    19.16182    48.07463
   642  H   1.0    0.08    1.00    25.54909    20.16338    50.51237
   643  H   1.0    0.07    0.99    26.79631    22.33656    48.35809
   644  C   4.0   -0.10    4.10    22.24207    17.32879    47.86676
   645  H   1.0    0.09    1.01    23.43260    16.00598    46.86520
   646  H   1.0    0.07    1.00    20.39014    16.85636    46.94079
   647  C   4.0   -0.09    3.97    21.92082    16.27054    50.74481
   648  H   1.0    0.08    1.00    23.73496    16.44062    51.74637
   649  H   1.0    0.06    0.98    20.57912    17.55555    51.87865
   650  O   6.0   -0.13    1.99    20.95706    13.77610    50.45568
   651  H   1.0    0.08    0.98    19.42638    13.66272    51.70857
   652  C   4.0   -0.18    4.11    32.50329    13.66272    38.62600
   653  N   5.0   -0.25    3.99    31.23717    11.22497    37.96459
   654  H   1.0    0.08    1.00    31.87968    14.66427    40.32675
   655  H   1.0    0.07    1.00    32.16314    14.90994    36.94414
   656  H   1.0    0.11    1.00    34.46860    13.71941    38.81497
   657  C   4.0   -0.18    4.13    32.73005     9.80768    35.94259
   658  H   1.0    0.06    0.99    34.73316     9.48642    36.71738
   659  H   1.0    0.09    1.00    32.10644     7.91795    35.47016
   660  H   1.0    0.09    1.00    33.03241    10.90372    34.27963
   661  C   4.0   -0.17    4.17    31.42614     9.50532    40.15668
   662  H   1.0    0.10    1.01    30.55687    10.52577    41.64956
   663  H   1.0    0.06    0.98    30.53797     7.50221    39.83542
   664  H   1.0    0.09    1.00    33.29697     9.08958    40.79918
   665  C   4.0   -0.07    4.06    28.34589    11.31946    37.20870
   666  H   1.0    0.07    1.00    27.57110     9.48642    36.52840
   667  H   1.0    0.05    0.97    28.02464    12.79344    35.54575
   668  C   4.0   -0.19    4.05    26.32388    12.39660    39.19292
   669  H   1.0    0.13    1.01    26.53175    11.11159    40.57242
   670  H   1.0    0.12    1.01    26.68293    14.02177    40.17557
   671  O   6.0   -0.18    2.03    24.13180    12.49109    37.83231
   672  H   1.0    0.12    1.08    23.47040    10.82813    38.38033
   673  C   4.0   -0.20    4.11     6.72742     8.91951    30.57577
   674  N   5.0   -0.24    3.98     4.91329    11.03600    31.59622
   675  H   1.0    0.06    0.98     6.93529     7.18096    31.86078
   676  H   1.0    0.09    1.00     6.31168     8.10692    28.78053
   677  H   1.0    0.10    1.00     8.65494     9.46753    30.67025
   678  C   4.0   -0.17    4.16     4.49755    12.75565    29.49862
   679  H   1.0    0.08    1.00     2.96687    14.00287    30.19782
   680  H   1.0    0.10    1.00     3.81725    11.96197    27.79787
   681  H   1.0    0.08    1.00     6.19830    13.88949    29.12068
   682  C   4.0   -0.18    4.09     2.43775     9.44863    31.95527
   683  H   1.0    0.09    1.00     0.81258    10.58247    32.29542
   684  H   1.0    0.07    0.99     1.83303     8.18251    30.38679
   685  H   1.0    0.06    0.99     2.41885     7.95575    33.50484
   686  C   4.0   -0.11    4.10     5.97153    12.62337    33.76940
   687  H   1.0    0.06    0.98     7.74788    13.83279    33.22138
   688  H   1.0    0.11    1.01     4.72431    14.00287    34.41191
   689  C   4.0   -0.11    4.01     7.02978    11.65961    36.30164
   690  H   1.0    0.07    1.00     5.31013    10.75254    37.17091
   691  H   1.0    0.09    1.01     8.48487    10.52577    35.43236
   692  O   6.0   -0.12    1.97     8.01244    13.71941    37.79452
   693  H   1.0    0.08    1.02     9.99665    13.32257    37.87011
   694  C   4.0   -0.18    4.11    36.41502    15.45796    16.00598
   695  N   5.0   -0.25    3.99    37.39768    17.53666    17.66894
   696  H   1.0    0.09    1.00    34.39301    15.55244    15.93039
   697  H   1.0    0.06    0.99    37.18981    15.53355    13.98397
   698  H   1.0    0.09    1.00    36.92525    13.70051    16.87525
   699  C   4.0   -0.18    4.19    40.17557    17.57445    17.02643
   700  H   1.0    0.07    0.99    41.12044    15.74142    17.53666
   701  H   1.0    0.09    1.00    40.36455    17.93350    15.04222
   702  H   1.0    0.09    1.00    41.34720    18.87836    18.08468
   703  C   4.0   -0.22    4.11    36.67958    20.31455    17.29099
   704  H   1.0    0.10    1.00    37.77562    21.82633    17.99019
   705  H   1.0    0.06    0.99    34.56309    20.63581    17.61225
   706  H   1.0    0.12    1.01    36.69848    20.86257    15.43906
   707  C   4.0   -0.09    4.08    37.15201    16.81856    20.54132
   708  H   1.0    0.08    1.00    38.15357    18.23586    21.67516
   709  H   1.0    0.06    0.99    38.00239    14.92883    21.14603
   710  C   4.0   -0.10    4.00    34.52529    16.64849    21.86413
   711  H   1.0    0.07    0.99    33.31587    15.32568    20.71140
   712  H   1.0    0.08    1.00    33.58043    18.42483    21.42949
   713  O   6.0   -0.13    1.98    34.31742    16.45951    24.54754
   714  H   1.0    0.09    1.05    32.93792    15.09891    24.92549
   715  C   4.0   -0.22    4.18     2.81569     0.69920    41.00705
   716  N   5.0   -0.25    4.00     2.87238     0.96376    43.86054
   717  H   1.0    0.10    1.00     3.94953     2.02201    40.06219
   718  H   1.0    0.07    0.99     0.90707     1.30391    40.27006
   719  H   1.0    0.11    1.00     2.72121    -0.95431    39.98660
   720  C   4.0   -0.25    4.19     5.42351    -0.14173    44.31407
   721  H   1.0    0.11    1.00     5.80146    -1.99366    43.78495
   722  H   1.0    0.08    1.00     6.84081     1.19053    43.59598
   723  H   1.0    0.13    1.01     5.80146    -0.33070    46.18490
   724  C   4.0   -0.18    4.09     2.89128     3.77945    44.50305
   725  H   1.0    0.05    0.97     0.86927     4.53534    43.91723
   726  H   1.0    0.08    1.00     3.23143     3.89284    46.52505
   727  H   1.0    0.11    1.00     4.51645     4.68652    43.84164
   728  C   4.0   -0.13    4.08     0.69920    -0.29291    45.29673
   729  H   1.0    0.08    1.00     0.64251    -2.27712    44.65422
   730  H   1.0    0.11    1.01     1.05825    -0.25511    47.22425
   731  C   4.0   -0.12    3.99    -2.14484     0.75589    45.16445
   732  H   1.0    0.08    1.00    -2.93852     0.96376    43.27472
   733  H   1.0    0.08    1.00    -2.25822     2.66451    45.95814
   734  O   6.0   -0.16    2.00    -3.61883    -0.84093    46.86520
   735  H   1.0    0.12    1.01    -4.09126     0.32125    48.22581
   736  C   4.0   -0.19    4.10    36.96304     4.66762    24.20739
   737  N   5.0   -0.25    4.00    35.35677     7.12427    24.35857
   738  H   1.0    0.06    0.98    37.79452     4.23299    26.21050
   739  H   1.0    0.09    1.00    38.68269     4.68652    23.16804
   740  H   1.0    0.10    1.00    35.75361     3.17474    23.69716
   741  C   4.0   -0.13    4.12    37.00083     8.93840    25.85145
   742  H   1.0    0.07    0.99    38.73938     9.25966    24.66092
   743  H   1.0    0.06    0.98    36.26384    10.97931    26.05932
   744  H   1.0    0.07    0.99    37.88901     8.39038    27.72228
   745  C   4.0   -0.17    4.06    34.37412     7.74788    21.73185
   746  H   1.0    0.10    1.00    33.27807     6.16051    21.16493
   747  H   1.0    0.08    1.00    36.03707     7.84236    20.46573
   748  H   1.0    0.06    0.98    33.10800     9.50532    21.56177
   749  C   4.0   -0.07    4.15    33.25918     6.65184    26.17270
   750  H   1.0    0.05    0.97    31.89857     8.42818    26.22940
   751  H   1.0    0.08    1.01    32.08755     5.12116    25.39792
   752  C   4.0   -0.06    3.97    33.44815     5.82036    28.98840
   753  H   1.0    0.06    0.99    34.54419     7.36993    30.04664
   754  H   1.0    0.05    0.98    34.84655     4.10071    29.08288
   755  O   6.0   -0.19    2.01    31.18048     5.04557    30.14113
   756  H   1.0    0.13    1.00    30.95371     3.60938    31.23717
   757  C   4.0   -0.14    4.12    12.64227     5.48021    38.98505
   758  N   5.0   -0.24    3.99    12.50999     4.21409    36.45281
   759  H   1.0    0.09    1.00    11.86748     4.53534    40.62911
   760  H   1.0    0.06    0.98    11.96197     7.55890    38.90946
   761  H   1.0    0.06    0.98    14.62648     5.46131    39.87322
   762  C   4.0   -0.16    4.08    14.32412     5.63138    34.71427
   763  H   1.0    0.10    1.00    14.66427     5.08336    32.82454
   764  H   1.0    0.06    0.99    16.19495     6.27389    35.56464
   765  H   1.0    0.06    0.99    13.60603     7.59670    34.14735
   766  C   4.0   -0.22    4.11    13.15249     1.43619    37.13311
   767  H   1.0    0.09    1.00    12.03755     0.49133    38.53151
   768  H   1.0    0.11    1.00    14.96663     1.28501    37.88901
   769  H   1.0    0.08    1.00    12.92573     0.34015    35.41346
   770  C   4.0   -0.09    4.12     9.88327     4.27078    35.20559
   771  H   1.0    0.09    1.01     9.44863     6.23610    34.82765
   772  H   1.0    0.06    0.99     9.88327     3.21253    33.29697
   773  C   4.0   -0.13    4.05     7.63449     3.38261    36.67958
   774  H   1.0    0.11    1.01     7.65339     4.44086    38.34254
   775  H   1.0    0.08    1.00     7.76677     1.53068    37.56775
   776  O   6.0   -0.18    2.04     5.61249     3.60938    35.05442
   777  H   1.0    0.12    1.02     4.30858     4.28968    36.18825
   778  C   4.0   -0.18    4.10    14.64538     4.32747    20.57912
   779  N   5.0   -0.23    3.98    13.90838     3.77945    23.28142
   780  H   1.0    0.09    1.00    16.25164     5.55579    20.44683
   781  H   1.0    0.06    0.99    12.88793     5.32903    19.82323
   782  H   1.0    0.09    1.00    14.73986     2.74010    19.31300
   783  C   4.0   -0.13    4.06    11.50843     2.19208    23.14914
   784  H   1.0    0.08    1.00    10.01555     2.96687    21.95862
   785  H   1.0    0.05    0.97    10.65805     1.70075    25.15225
   786  H   1.0    0.06    0.98    11.96197     0.15118    22.44994
   787  C   4.0   -0.19    4.05    15.98708     2.04090    24.60423
   788  H   1.0    0.07    1.00    16.28944     0.32125    23.43260
   789  H   1.0    0.10    1.00    15.15560     1.68186    26.38057
   790  H   1.0    0.07    0.99    17.74453     3.21253    24.86879
   791  C   4.0   -0.12    4.10    13.41705     6.27389    24.73651
   792  H   1.0    0.10    1.01    12.20763     7.50221    23.69716
   793  H   1.0    0.09    1.01    15.19340     7.31324    24.77431
   794  C   4.0   -0.13    4.03    12.73675     6.29279    27.49551
   795  H   1.0    0.09    1.01    14.07846     4.95108    28.21361
   796  H   1.0    0.10    1.00    10.96041     5.51800    27.96794
   797  O   6.0   -0.15    2.01    13.13360     8.61715    28.66714
   798  H   1.0    0.10    1.04    14.89104     8.59825    29.51752
   799  C   4.0   -0.20    4.07    45.33453    17.34768    44.84320
   800  N   5.0   -0.21    3.95    45.03217    17.82012    41.81964
   801  H   1.0    0.09    1.00    44.18179    15.85480    45.58019
   802  H   1.0    0.08    1.00    47.33764    17.06423    45.20224
   803  H   1.0    0.07    0.99    44.48415    18.91616    46.01483
   804  C   4.0   -0.18    4.10    46.84631    19.99330    41.53618
   805  H   1.0    0.07    0.99    48.76438    19.63425    42.31096
   806  H   1.0    0.08    1.00    47.26205    20.61691    39.60866
   807  H   1.0    0.09    1.00    45.97703    21.75075    42.04640
   808  C   4.0   -0.15    4.05    46.10931    15.40127    40.53462
   809  H   1.0    0.07    0.99    47.97069    14.90994    41.46059
   810  H   1.0    0.07    1.00    46.39277    15.59024    38.47482
   811  H   1.0    0.07    0.99    44.54084    13.94618    40.51572
   812  C   4.0   -0.17    4.06    42.10309    18.10357    41.27161
   813  H   1.0    0.10    1.01    41.64956    19.55866    42.57553
   814  H   1.0    0.12    1.02    41.36610    16.44062    41.89522
   815  C   4.0   -0.12    4.01    41.04485    18.27365    38.62600
   816  H   1.0    0.08    1.00    41.61177    16.66738    37.43547
   817  H   1.0    0.08    1.00    42.00861    19.89881    37.81342
   818  O   6.0   -0.13    1.98    38.28585    18.36814    38.30474
   819  H   1.0    0.09    1.07    38.04018    16.85636    37.07642
   820  C   4.0   -0.20    4.08    34.69537     6.72742    10.46908
   821  N   5.0   -0.22    3.96    33.24028     7.99354    12.71786
   822  H   1.0    0.08    1.00    36.69848     6.67073    11.01710
   823  H   1.0    0.08    1.00    34.22294     4.74321    10.26121
   824  H   1.0    0.09    1.00    34.50640     7.63449     8.65494
   825  C   4.0   -0.23    4.07    33.71271    10.84703    12.68006
   826  H   1.0    0.15    1.01    32.80564    11.77299    14.02177
   827  H   1.0    0.09    1.00    35.69692    11.18718    13.05801
   828  H   1.0    0.06    0.98    32.88123    11.31946    10.69585
   829  C   4.0   -0.16    4.11    30.48128     7.61560    12.11314
   830  H   1.0    0.08    1.00    29.89546     5.65028    11.84858
   831  H   1.0    0.08    1.00    29.55531     8.65494    10.56357
   832  H   1.0    0.07    1.00    29.49862     8.22031    13.88949
   833  C   4.0   -0.11    4.03    33.80720     6.63294    15.40127
   834  H   1.0    0.08    1.00    35.84810     6.99199    15.66583
   835  H   1.0    0.08    1.00    33.03241     7.93685    16.79966
   836  C   4.0   -0.15    4.00    33.58043     3.74166    16.17605
   837  H   1.0    0.09    1.00    31.65291     3.21253    15.87370
   838  H   1.0    0.11    1.01    34.60088     2.64562    14.90994
   839  O   6.0   -0.14    1.99    34.97883     2.87238    18.25475
   840  H   1.0    0.09    0.98    33.80720     1.94642    19.52087
   841  C   4.0   -0.16    4.14     7.74788    11.82968    47.29984
   842  N   5.0   -0.25    3.99     7.84236    12.73675    44.71092
   843  H   1.0    0.06    0.99     8.90061    10.14783    47.98014
   844  H   1.0    0.10    1.00     8.27700    13.19029    48.64155
   845  H   1.0    0.07    1.00     5.66918    11.41394    47.43212
   846  C   4.0   -0.20    4.10    10.75254    12.90683    44.08731
   847  H   1.0    0.07    1.00    11.13049    13.92728    42.29207
   848  H   1.0    0.08    1.00    11.75410    13.73831    45.67468
   849  H   1.0    0.10    1.00    11.48953    11.05490    43.95503
   850  C   4.0   -0.16    4.09     6.74632    10.60136    43.08575
   851  H   1.0    0.07    0.99     4.66762    10.37460    43.19914
   852  H   1.0    0.06    0.98     7.44552     8.52266    43.31252
   853  H   1.0    0.10    1.00     6.89750    11.28166    41.19603
   854  C   4.0   -0.10    4.06     6.46286    15.30678    44.20069
   855  H   1.0    0.06    0.99     6.50066    15.47686    42.04640
   856  H   1.0    0.09    1.01     4.55424    14.81545    44.74871
   857  C   4.0   -0.13    3.99     7.10537    17.99019    45.33453
   858  H   1.0    0.07    0.99     7.02978    17.89570    47.45102
   859  H   1.0    0.10    1.01     9.05179    18.19806    45.01327
   860  O   6.0   -0.12    1.97     5.44241    19.82323    44.14400
   861  H   1.0    0.08    1.07     4.93218    21.01375    45.69357
   862  C   4.0   -0.19    4.07    43.36921     2.75900    19.02954
   863  N   5.0   -0.24    3.99    42.23537     0.86927    17.06423
   864  H   1.0    0.09    1.00    42.02751     4.08181    19.80433
   865  H   1.0    0.09    1.00    44.84320     3.93063    18.29255
   866  H   1.0    0.06    0.99    44.12510     1.77634    20.78699
   867  C   4.0   -0.18    4.10    44.33297    -0.70865    15.94929
   868  H   1.0    0.11    1.00    43.65267    -2.03146    14.68317
   869  H   1.0    0.08    1.00    45.46681    -1.67241    17.40438
   870  H   1.0    0.06    0.99    45.67468     0.81258    15.15560
   871  C   4.0   -0.12    4.09    40.44014    -0.78424    18.44373
   872  H   1.0    0.06    0.99    39.45748    -2.23933    17.19651
   873  H   1.0    0.06    0.99    38.72048     0.11338    19.36969
   874  H   1.0    0.06    0.99    41.17713    -1.99366    20.06889
   875  C   4.0   -0.14    4.09    40.89367     2.28657    14.81545
   876  H   1.0    0.07    1.00    39.41968     3.66607    15.42016
   877  H   1.0    0.11    1.01    42.21648     3.34481    13.85169
   878  C   4.0   -0.07    3.98    39.47638     0.51023    12.96352
   879  H   1.0    0.05    0.97    37.75672    -0.53857    13.94618
   880  H   1.0    0.07    0.99    40.51572    -1.14328    12.09425
   881  O   6.0   -0.15    2.01    38.83387     2.13539    10.84703
   882  H   1.0    0.11    1.05    37.20870     1.28501    10.31790
   883  C   4.0   -0.19    4.20    25.60579     7.63449    23.48929
   884  N   5.0   -0.26    4.00    24.86879     9.73209    21.90192
   885  H   1.0    0.10    1.00    26.47506     6.14161    22.50664
   886  H   1.0    0.07    0.99    24.15070     6.68963    24.73651
   887  H   1.0    0.10    1.01    26.92859     8.22031    24.84990
   888  C   4.0   -0.20    4.11    22.71451     8.67384    20.22007
   889  H   1.0    0.08    1.00    23.18694     7.04868    19.01064
   890  H   1.0    0.07    1.00    22.31766    10.46908    19.16182
   891  H   1.0    0.11    1.00    21.25942     8.12582    21.42949
   892  C   4.0   -0.20    4.10    23.67827    11.96197    23.35701
   893  H   1.0    0.09    1.00    24.73651    12.79344    24.86879
   894  H   1.0    0.08    1.00    21.78854    11.48953    24.11290
   895  H   1.0    0.09    1.00    23.47040    13.56823    22.12869
   896  C   4.0   -0.13    4.14    27.32544    10.54467    20.69250
   897  H   1.0    0.09    1.01    28.44038    11.64071    21.99641
   898  H   1.0    0.11    1.01    28.32699     9.01399    19.95551
   899  C   4.0   -0.09    4.01    27.47662    12.77455    18.57601
   900  H   1.0    0.07    1.00    26.45616    12.32101    16.76187
   901  H   1.0    0.08    1.00    26.83411    14.66427    19.10513
   902  O   6.0   -0.16    2.02    29.83877    12.85014    17.47997
   903  H   1.0    0.11    1.08    30.14113    14.72097    17.30989
   904  C   4.0   -0.21    4.09     4.51645     2.81569     1.81414
   905  N   5.0   -0.24    3.98     3.19364     5.32903     2.26767
   906  H   1.0    0.10    1.01     3.23143     1.43619     2.45664
   907  H   1.0    0.06    0.99     6.29279     2.51334     3.00466
   908  H   1.0    0.12    1.00     5.12116     2.66451    -0.02457
   909  C   4.0   -0.17    4.20     0.85038     5.87705     0.64251
   910  H   1.0    0.10    1.00     1.37950     6.06602    -1.27179
   911  H   1.0    0.07    0.99    -0.21732     7.61560     1.15273
   912  H   1.0    0.06    0.98    -0.63306     4.32747     0.18897
   913  C   4.0   -0.19    4.26     1.66296     4.95108     4.59203
   914  H   1.0    0.07    0.99     2.85349     4.10071     6.16051
   915  H   1.0    0.10    1.00     0.35905     3.43930     4.30858
   916  H   1.0    0.10    1.00     0.81258     6.59514     5.36682
   917  C   4.0   -0.14    4.07     5.21564     7.55890     2.17318
   918  H   1.0    0.09    1.00     6.31168     7.33214     0.49133
   919  H   1.0    0.10    1.01     6.44397     7.19986     3.70386
   920  C   4.0   -0.12    4.03     4.64873    10.33680     2.70231
   921  H   1.0    0.09    1.01     3.28812    10.65805     1.24722
   922  H   1.0    0.10    1.01     3.93063    10.52577     4.55424
   923  O   6.0   -0.16    2.01     6.63294    11.86748     2.60782
   924  H   1.0    0.10    1.07     6.93529    12.69896     4.34637
   925  C   4.0   -0.16    4.06    40.28896     1.13384    38.19136
   926  N   5.0   -0.24    3.97    39.57086     3.81725    38.96615
   927  H   1.0    0.08    1.00    42.32986     1.11494    37.75672
   928  H   1.0    0.08    1.00    39.26851     0.52912    36.47171
   929  H   1.0    0.07    0.99    39.64645    -0.29291    39.60866
   930  C   4.0   -0.16    4.13    40.44014     5.68808    37.00083
   931  H   1.0    0.07    0.99    39.92991     5.12116    35.03552
   932  H   1.0    0.09    1.00    40.08109     7.63449    37.52996
   933  H   1.0    0.07    0.99    42.53773     5.91484    36.96304
   934  C   4.0   -0.15    4.09    36.77407     4.11960    39.19292
   935  H   1.0    0.07    0.99    35.88590     2.83459    40.62911
   936  H   1.0    0.10    1.00    36.20715     5.95264    39.77873
   937  H   1.0    0.06    0.98    35.75361     4.06291    37.24650
   938  C   4.0   -0.13    4.07    40.95036     4.87549    41.49838
   939  H   1.0    0.08    1.00    42.99127     4.66762    41.27161
   940  H   1.0    0.09    1.00    40.79918     6.89750    41.76294
   941  C   4.0   -0.07    3.99    40.28896     3.53379    43.99282
   942  H   1.0    0.07    1.00    38.19136     3.51489    44.03061
   943  H   1.0    0.06    0.99    40.66690     1.39840    44.01172
   944  O   6.0   -0.15    1.99    40.78029     4.89439    46.12821
   945  H   1.0    0.09    0.98    41.55507     3.91173    47.63999
   946  C   4.0   -0.16    4.15    34.80875    30.38679    35.96148
   947  N   5.0   -0.25    3.99    33.90168    32.67336    37.28429
   948  H   1.0    0.08    1.00    35.60244    28.89391    37.18981
   949  H   1.0    0.08    1.00    36.32053    31.01040    34.67647
   950  H   1.0    0.08    1.00    33.35366    29.49862    34.78985
   951  C   4.0   -0.24    4.09    32.91903    34.60088    35.39457
   952  H   1.0    0.06    0.99    32.18203    36.32053    36.47171
   953  H   1.0    0.14    1.01    34.07176    35.13001    34.01507
   954  H   1.0    0.10    1.00    31.31276    33.84499    34.48750
   955  C   4.0   -0.13    4.08    31.78519    31.91747    39.07953
   956  H   1.0    0.06    0.98    31.36945    33.42925    40.59131
   957  H   1.0    0.07    0.99    30.02775    31.44504    37.98349
   958  H   1.0    0.06    0.99    32.14424    30.17892    40.32675
   959  C   4.0   -0.13    4.12    36.32053    33.50484    38.81497
   960  H   1.0    0.10    1.01    37.56775    34.33632    37.47327
   961  H   1.0    0.08    1.01    37.30319    31.86078    39.57086
   962  C   4.0   -0.10    4.00    36.13156    35.26229    41.19603
   963  H   1.0    0.09    1.01    35.05442    36.86855    40.62911
   964  H   1.0    0.06    0.99    34.88434    34.12845    42.53773
   965  O   6.0   -0.15    2.00    38.41813    35.84810    42.32986
   966  H   1.0    0.09    1.01    38.45592    35.24339    44.18179
   967  C   4.0   -0.21    4.07     9.46753    32.40880    44.14400
   968  N   5.0   -0.25    3.99    12.15094    31.21827    43.65267
   969  H   1.0    0.09    1.00     9.46753    33.18359    46.01483
   970  H   1.0    0.11    1.00     9.07068    34.09066    43.19914
   971  H   1.0    0.06    0.99     7.82347    31.02930    43.97392
   972  C   4.0   -0.19    4.10    12.33991    30.48128    40.87477
   973  H   1.0    0.09    1.00    14.09736    29.57421    40.36455
   974  H   1.0    0.06    0.98    11.69740    32.20093    39.70314
   975  H   1.0    0.11    1.01    10.67695    29.46083    40.55352
   976  C   4.0   -0.16    4.14    13.98397    33.22138    44.18179
   977  H   1.0    0.07    0.99    13.62492    34.05286    46.10931
   978  H   1.0    0.10    1.00    15.83590    32.48439    43.87944
   979  H   1.0    0.08    1.00    13.58713    34.75206    42.84009
   980  C   4.0   -0.15    4.12    12.81234    28.83722    45.31563
   981  H   1.0    0.10    1.01    11.22497    27.70338    44.93768
   982  H   1.0    0.10    1.02    12.56668    29.44193    47.20535
   983  C   4.0   -0.10    4.01    15.15560    27.40103    45.50460
   984  H   1.0    0.11    1.01    16.72407    28.55376    45.80696
   985  H   1.0    0.06    0.98    15.45796    26.89080    43.36921
   986  O   6.0   -0.14    2.01    14.87214    25.37902    47.05418
   987  H   1.0    0.09    1.09    15.68473    23.73496    46.27939
   988  C   4.0   -0.12    4.06    39.91101    28.79942     0.98266
   989  N   5.0   -0.24    3.98    37.05753    28.74273     1.19053
   990  H   1.0    0.05    0.97    40.85588    27.09867     2.05980
   991  H   1.0    0.06    0.98    41.02595    28.89391    -0.89384
   992  H   1.0    0.07    0.99    40.55352    30.61356     1.87083
   993  C   4.0   -0.15    4.06    35.94259    31.14268     0.09449
   994  H   1.0    0.05    0.97    36.66068    31.55842    -1.97098
   995  H   1.0    0.08    1.00    36.41502    32.76785     1.26612
   996  H   1.0    0.08    1.00    33.92058    30.72694    -0.19464
   997  C   4.0   -0.17    4.09    36.22605    26.30499    -0.10016
   998  H   1.0    0.09    1.00    34.24183    25.96483    -0.30803
   999  H   1.0    0.07    0.99    36.92525    24.54754     0.86927
  1000  H   1.0    0.08    1.00    36.96304    26.21050    -2.04657
  1001  C   4.0   -0.10    4.09    36.18825    28.57266     4.06291
  1002  H   1.0    0.07    1.00    34.10955    28.28920     4.42196
  1003  H   1.0    0.08    1.00    37.05753    26.92859     5.00777
  1004  C   4.0   -0.14    4.03    36.32053    30.78364     5.99043
  1005  H   1.0    0.09    1.00    35.48905    32.55998     5.46131
  1006  H   1.0    0.11    1.01    38.21026    31.25607     5.99043
  1007  O   6.0   -0.15    2.01    35.94259    29.81988     8.37149
  1008  H   1.0    0.09    1.05    35.01662    31.18048     9.42973
  1009  C   4.0   -0.13    4.05    34.12845    23.20583    30.65135
  1010  N   5.0   -0.27    4.02    34.90324    20.71140    31.84188
  1011  H   1.0    0.07    0.99    35.30008    23.86724    28.98840
  1012  H   1.0    0.08    1.00    34.56309    24.90659    31.70960
  1013  H   1.0    0.04    0.94    32.01196    22.96017    29.76318
  1014  C   4.0   -0.14    4.14    34.99772    18.48152    30.16003
  1015  H   1.0    0.07    1.00    33.10800    18.25475    29.23406
  1016  H   1.0    0.06    0.98    36.49061    18.89726    28.61045
  1017  H   1.0    0.08    1.00    35.73472    16.91305    31.27496
  1018  C   4.0   -0.21    4.16    37.58665    21.22162    32.71116
  1019  H   1.0    0.09    1.00    37.73783    22.73340    34.07176
  1020  H   1.0    0.06    0.98    38.75828    19.65315    33.71271
  1021  H   1.0    0.13    1.01    38.73938    21.84523    31.31276
  1022  C   4.0   -0.11    4.20    33.46705    19.84212    34.10955
  1023  H   1.0    0.10    1.01    33.41035    21.16493    35.60244
  1024  H   1.0    0.07    1.00    34.43081    18.17916    35.01662
  1025  C   4.0   -0.13    4.04    30.80253    18.89726    33.76940
  1026  H   1.0    0.12    1.01    30.67025    17.53666    32.40880
  1027  H   1.0    0.07    1.01    30.16003    20.65470    32.80564
  1028  O   6.0   -0.14    2.00    29.66870    18.57601    36.07487
  1029  H   1.0    0.09    1.06    28.49707    20.18227    36.28274
  1030  C   4.0   -0.16    4.22     6.34948    10.48798    16.02488
  1031  N   5.0   -0.29    4.02     4.70542     8.48487    17.00753
  1032  H   1.0    0.06    0.98     6.97309    11.86748    17.59335
  1033  H   1.0    0.08    1.00     5.31013    11.60292    14.60758
  1034  H   1.0    0.10    1.00     8.20141     9.93996    15.49575
  1035  C   4.0   -0.21    4.14     2.09760     9.14627    18.02799
  1036  H   1.0    0.10    1.00     0.98266     7.63449    18.67049
  1037  H   1.0    0.10    1.00     2.32436    10.35570    19.61536
  1038  H   1.0    0.07    0.99     0.94486    10.33680    16.74297
  1039  C   4.0   -0.18    4.26     4.30858     7.06758    14.68317
  1040  H   1.0    0.08    1.00     3.09915     5.44241    15.13670
  1041  H   1.0    0.09    1.00     3.40151     7.91795    13.05801
  1042  H   1.0    0.09    1.00     6.00933     6.21720    13.92728
  1043  C   4.0   -0.14    4.18     5.99043     7.08647    19.06733
  1044  H   1.0    0.09    1.01     7.82347     6.72742    18.25475
  1045  H   1.0    0.12    1.01     4.87549     5.68808    19.82323
  1046  C   4.0   -0.13    4.03     6.87860     8.37149    21.63736
  1047  H   1.0    0.08    1.00     5.23454     9.29745    22.46884
  1048  H   1.0    0.11    1.01     8.31479     9.69429    21.44839
  1049  O   6.0   -0.15    2.00     7.50221     6.46286    23.28142
  1050  H   1.0    0.08    0.99     5.89594     6.40617    24.43416
  1051  C   4.0   -0.15    4.03    47.03528    42.70781    24.45305
  1052  N   5.0   -0.23    3.97    44.59753    41.13933    24.56644
  1053  H   1.0    0.07    0.99    48.17856    42.12199    26.15381
  1054  H   1.0    0.04    0.93    48.19746    42.40545    22.46884
  1055  H   1.0    0.11    1.00    46.65733    44.63533    24.49085
  1056  C   4.0   -0.15    4.10    43.50149    41.81964    27.13646
  1057  H   1.0    0.07    0.99    44.76761    41.49838    28.83722
  1058  H   1.0    0.07    0.99    41.61177    41.02595    27.57110
  1059  H   1.0    0.07    1.00    42.89678    43.84164    27.06088
  1060  C   4.0   -0.18    4.04    42.67001    41.64956    22.35546
  1061  H   1.0    0.07    0.99    43.06685    41.00705    20.39014
  1062  H   1.0    0.09    1.00    40.89367    40.72359    22.65781
  1063  H   1.0    0.07    0.99    42.23537    43.69046    21.92082
  1064  C   4.0   -0.11    4.10    45.18335    38.22916    24.56644
  1065  H   1.0    0.07    1.00    43.27472    37.32209    24.39636
  1066  H   1.0    0.09    1.01    45.76916    37.66224    22.71451
  1067  C   4.0   -0.12    4.02    46.56285    36.83076    26.64514
  1068  H   1.0    0.11    1.01    48.36754    37.47327    27.04198
  1069  H   1.0    0.07    1.00    45.46681    37.05753    28.47817
  1070  O   6.0   -0.15    2.01    46.14711    34.26073    26.51286
  1071  H   1.0    0.09    1.05    45.08886    33.95838    28.13802
  1072  C   4.0   -0.19    4.08    16.11936    49.47303     7.93685
  1073  N   5.0   -0.21    3.96    14.07846    51.38165     6.93529
  1074  H   1.0    0.07    0.99    16.81856    48.43368     6.19830
  1075  H   1.0    0.08    1.00    15.62803    47.88566     9.16517
  1076  H   1.0    0.10    1.00    17.74453    50.55017     8.40928
  1077  C   4.0   -0.14    4.04    11.92417    49.77538     5.83925
  1078  H   1.0    0.06    0.98    11.20607    48.13132     7.12427
  1079  H   1.0    0.09    1.00    10.37460    51.04150     5.48021
  1080  H   1.0    0.06    0.98    12.39660    48.60375     4.06291
  1081  C   4.0   -0.24    4.09    13.17139    52.61942     9.46753
  1082  H   1.0    0.07    0.99    11.77299    54.15010     9.08958
  1083  H   1.0    0.09    1.00    12.07535    51.32496    10.56357
  1084  H   1.0    0.13    1.00    14.34302    53.26193    10.82813
  1085  C   4.0   -0.11    4.07    15.19340    53.43200     5.08336
  1086  H   1.0    0.07    1.00    13.58713    54.49025     4.19519
  1087  H   1.0    0.09    1.01    16.30833    52.52493     3.64717
  1088  C   4.0   -0.11    4.02    16.85636    55.62408     6.02823
  1089  H   1.0    0.10    1.01    18.23586    54.81150     7.23765
  1090  H   1.0    0.07    1.00    15.87370    57.13586     7.08647
  1091  O   6.0   -0.11    1.91    17.78232    56.75792     3.91173
  1092  H   1.0    0.05    0.88    17.15871    58.79882     4.11960
  1093  C   4.0   -0.25    4.09    46.94079    49.26516    35.48905
  1094  N   5.0   -0.25    4.00    47.63999    49.88877    32.71116
  1095  H   1.0    0.09    1.00    46.35498    50.94701    36.45281
  1096  H   1.0    0.12    1.00    45.52350    47.94235    35.64023
  1097  H   1.0    0.10    1.00    48.48092    48.50927    36.50951
  1098  C   4.0   -0.24    4.18    45.37232    50.92811    31.48283
  1099  H   1.0    0.08    1.00    44.50305    52.50604    32.48439
  1100  H   1.0    0.15    1.01    45.84475    51.55172    29.80098
  1101  H   1.0    0.08    1.00    43.86054    49.52972    31.50173
  1102  C   4.0   -0.19    4.08    49.74704    51.92967    32.57888
  1103  H   1.0    0.07    0.99    50.54072    52.52493    30.72694
  1104  H   1.0    0.07    0.99    51.39110    51.28716    33.73161
[...]
  1674  H   0.999    C 1673 0.961
  1675  H   0.997    C 1673 0.954
  1676  C   3.938    O 1679 0.988    C 1673 0.985    H 1678 0.972    H 1677 0.952
  1677  H   0.993    C 1676 0.952
  1678  H   0.999    C 1676 0.972
  1679  O   2.007    C 1676 0.988    H 1680 0.786    O    3 0.086
  1680  H   0.972    O 1679 0.786    O    3 0.163
  1681  C   3.907    H 1684 0.975    H 1683 0.973    H 1685 0.972    N 1682 0.939
  1682  N   3.767    C 1686 0.940    C 1681 0.939    C 1690 0.932    C 1694 0.882
  1683  H   0.996    C 1681 0.973
  1684  H   0.996    C 1681 0.975
  1685  H   0.997    C 1681 0.972
  1686  C   3.914    H 1689 0.978    H 1688 0.977    H 1687 0.970    N 1682 0.940
  1687  H   0.994    C 1686 0.970
  1688  H   0.997    C 1686 0.977
  1689  H   0.997    C 1686 0.978
  1690  C   3.909    H 1691 0.979    H 1692 0.977    H 1693 0.969    N 1682 0.932
  1691  H   0.999    C 1690 0.979
  1692  H   0.995    C 1690 0.977
  1693  H   0.991    C 1690 0.969
  1694  C   3.860    H 1695 0.964    H 1696 0.962    C 1697 0.936    N 1682 0.882    O 1700 0.064
  1695  H   0.998    C 1694 0.964
  1696  H   0.997    C 1694 0.962
  1697  C   3.949    O 1700 1.043    H 1698 0.970    H 1699 0.962    C 1694 0.936
  1698  H   0.998    C 1697 0.970
  1699  H   0.998    C 1697 0.962
  1700  O   2.101    C 1697 1.043    H 1701 0.866    C 1694 0.064    O  444 0.060
  1701  H   0.973    O 1700 0.866    O  444 0.095
  1702  C   3.903    H 1706 0.978    H 1704 0.971    H 1705 0.957    N 1703 0.934
  1703  N   3.769    C 1707 0.940    C 1702 0.934    C 1711 0.917    C 1715 0.910
  1704  H   0.995    C 1702 0.971
  1705  H   0.994    C 1702 0.957
  1706  H   0.998    C 1702 0.978
  1707  C   3.912    H 1709 0.976    H 1708 0.975    H 1710 0.969    N 1703 0.940
  1708  H   0.994    C 1707 0.975
  1709  H   0.999    C 1707 0.976
  1710  H   0.995    C 1707 0.969
  1711  C   3.896    H 1714 0.977    H 1713 0.974    H 1712 0.970    N 1703 0.917
  1712  H   0.994    C 1711 0.970
  1713  H   0.995    C 1711 0.974
  1714  H   0.997    C 1711 0.977
  1715  C   3.898    C 1718 0.977    H 1717 0.975    H 1716 0.959    N 1703 0.910
  1716  H   0.995    C 1715 0.959
  1717  H   0.998    C 1715 0.975
  1718  C   3.951    O 1721 1.003    C 1715 0.977    H 1719 0.973    H 1720 0.970
  1719  H   0.999    C 1718 0.973
  1720  H   0.997    C 1718 0.970
  1721  O   2.033    C 1718 1.003    H 1722 0.957
  1722  H   0.973    O 1721 0.957
  1723  C   3.901    H 1725 0.980    H 1727 0.972    H 1726 0.964    N 1724 0.933
  1724  N   3.755    C 1728 0.940    C 1723 0.933    C 1732 0.922    C 1736 0.882
  1725  H   0.997    C 1723 0.980
  1726  H   0.995    C 1723 0.964
  1727  H   0.994    C 1723 0.972
  1728  C   3.906    H 1730 0.975    H 1731 0.968    H 1729 0.966    N 1724 0.940
  1729  H   0.995    C 1728 0.966
  1730  H   0.997    C 1728 0.975
  1731  H   0.994    C 1728 0.968
  1732  C   3.897    H 1735 0.972    H 1734 0.971    H 1733 0.970    N 1724 0.922
  1733  H   0.993    C 1732 0.970
  1734  H   0.997    C 1732 0.971
  1735  H   0.997    C 1732 0.972
  1736  C   3.902    C 1739 1.016    H 1738 0.963    H 1737 0.963    N 1724 0.882
  1737  H   0.995    C 1736 0.963
  1738  H   0.995    C 1736 0.963
  1739  C   3.958    C 1736 1.016    O 1742 0.986    H 1740 0.965    H 1741 0.964
  1740  H   0.999    C 1739 0.965
  1741  H   0.999    C 1739 0.964
  1742  O   1.999    C 1739 0.986    H 1743 0.820    O  347 0.087
  1743  H   0.976    O 1742 0.820    O  347 0.143
  1744  C   3.908    H 1748 0.979    H 1746 0.966    H 1747 0.961    N 1745 0.950
  1745  N   3.756    C 1744 0.950    C 1753 0.923    C 1749 0.918    C 1757 0.892
  1746  H   0.995    C 1744 0.966
  1747  H   0.993    C 1744 0.961
  1748  H   0.999    C 1744 0.979
  1749  C   3.900    H 1750 0.981    H 1752 0.975    H 1751 0.973    N 1745 0.918
  1750  H   0.998    C 1749 0.981
  1751  H   0.992    C 1749 0.973
  1752  H   0.995    C 1749 0.975
  1753  C   3.907    H 1754 0.979    H 1755 0.974    H 1756 0.963    N 1745 0.923
  1754  H   0.995    C 1753 0.979
  1755  H   0.996    C 1753 0.974
  1756  H   0.994    C 1753 0.963
  1757  C   3.886    C 1760 0.982    H 1758 0.962    H 1759 0.958    N 1745 0.892
  1758  H   0.997    C 1757 0.962
  1759  H   0.996    C 1757 0.958
  1760  C   3.948    O 1763 1.006    C 1757 0.982    H 1762 0.971    H 1761 0.958
  1761  H   0.998    C 1760 0.958
  1762  H   0.999    C 1760 0.971
  1763  O   2.032    C 1760 1.006    H 1764 0.792    O  339 0.105
  1764  H   0.979    O 1763 0.792    O  339 0.177
  1765  C   3.901    H 1767 0.980    H 1768 0.973    H 1769 0.966    N 1766 0.930
  1766  N   3.748    C 1765 0.930    C 1774 0.919    C 1778 0.912    C 1770 0.911
  1767  H   0.997    C 1765 0.980
  1768  H   0.996    C 1765 0.973
  1769  H   0.994    C 1765 0.966
  1770  C   3.891    H 1772 0.982    H 1773 0.977    H 1771 0.968    N 1766 0.911
  1771  H   0.991    C 1770 0.968
  1772  H   0.998    C 1770 0.982
  1773  H   0.997    C 1770 0.977
  1774  C   3.893    H 1776 0.974    H 1777 0.972    H 1775 0.970    N 1766 0.919
  1775  H   0.996    C 1774 0.970
  1776  H   0.995    C 1774 0.974
  1777  H   0.995    C 1774 0.972
  1778  C   3.883    H 1780 0.971    H 1779 0.954    C 1781 0.947    N 1766 0.912
  1779  H   0.992    C 1778 0.954
  1780  H   0.998    C 1778 0.971
  1781  C   3.956    O 1784 1.036    H 1782 0.973    H 1783 0.967    C 1778 0.947
  1782  H   0.998    C 1781 0.973
  1783  H   0.999    C 1781 0.967
  1784  O   2.102    C 1781 1.036    H 1785 0.964
  1785  H   0.974    O 1784 0.964
  1786  C   3.892    H 1789 0.974    H 1790 0.973    H 1788 0.973    N 1787 0.907
  1787  N   3.764    C 1791 0.953    C 1795 0.945    C 1786 0.907    C 1799 0.884
  1788  H   0.995    C 1786 0.973
  1789  H   0.996    C 1786 0.974
  1790  H   0.995    C 1786 0.973
  1791  C   3.923    H 1792 0.977    H 1793 0.975    H 1794 0.972    N 1787 0.953
  1792  H   0.998    C 1791 0.977
  1793  H   0.997    C 1791 0.975
  1794  H   0.994    C 1791 0.972
  1795  C   3.915    H 1798 0.979    H 1796 0.974    H 1797 0.969    N 1787 0.945
  1796  H   0.998    C 1795 0.974
  1797  H   0.993    C 1795 0.969
  1798  H   0.997    C 1795 0.979
  1799  C   3.861    H 1801 0.965    H 1800 0.962    C 1802 0.933    N 1787 0.884    O 1805 0.071
  1800  H   0.997    C 1799 0.962
  1801  H   0.995    C 1799 0.965
  1802  C   3.952    O 1805 1.052    H 1804 0.970    H 1803 0.965    C 1799 0.933
  1803  H   1.000    C 1802 0.965
  1804  H   0.998    C 1802 0.970
  1805  O   2.088    C 1802 1.052    H 1806 0.785    O  262 0.100    C 1799 0.071
  1806  H   0.976    O 1805 0.785    O  262 0.181
  1807  C   3.898    H 1809 0.981    H 1810 0.974    H 1811 0.964    N 1808 0.936
  1808  N   3.760    C 1816 0.955    C 1807 0.936    C 1812 0.908    C 1820 0.895
  1809  H   0.996    C 1807 0.981
  1810  H   0.997    C 1807 0.974
  1811  H   0.995    C 1807 0.964
  1812  C   3.882    H 1813 0.984    H 1815 0.974    H 1814 0.962    N 1808 0.908
  1813  H   0.996    C 1812 0.984
  1814  H   0.988    C 1812 0.962
  1815  H   0.996    C 1812 0.974
  1816  C   3.919    H 1819 0.976    H 1818 0.969    H 1817 0.969    N 1808 0.955
  1817  H   0.994    C 1816 0.969
  1818  H   0.997    C 1816 0.969
  1819  H   0.998    C 1816 0.976
  1820  C   3.884    C 1823 0.964    H 1821 0.963    H 1822 0.963    N 1808 0.895    O 1826 0.055
  1821  H   0.998    C 1820 0.963
  1822  H   0.998    C 1820 0.963
  1823  C   3.949    O 1826 1.024    H 1825 0.969    C 1820 0.964    H 1824 0.959
  1824  H   0.995    C 1823 0.959
  1825  H   0.999    C 1823 0.969
  1826  O   2.102    C 1823 1.024    H 1827 0.958    C 1820 0.055
  1827  H   0.972    O 1826 0.958
  1828  C   3.919    H 1831 0.979    H 1830 0.978    H 1832 0.977    N 1829 0.943
  1829  N   3.765    C 1828 0.943    C 1837 0.938    C 1833 0.928    C 1841 0.884
  1830  H   0.996    C 1828 0.978
  1831  H   0.997    C 1828 0.979
  1832  H   0.994    C 1828 0.977
  1833  C   3.905    H 1834 0.982    H 1835 0.977    H 1836 0.971    N 1829 0.928
  1834  H   0.997    C 1833 0.982
  1835  H   0.994    C 1833 0.977
  1836  H   0.996    C 1833 0.971
  1837  C   3.919    H 1839 0.981    H 1838 0.981    H 1840 0.974    N 1829 0.938
  1838  H   0.998    C 1837 0.981
  1839  H   0.997    C 1837 0.981
  1840  H   0.994    C 1837 0.974
  1841  C   3.871    C 1844 0.975    H 1843 0.968    H 1842 0.960    N 1829 0.884
  1842  H   0.995    C 1841 0.960
  1843  H   0.999    C 1841 0.968
  1844  C   3.955    O 1847 1.023    C 1841 0.975    H 1845 0.969    H 1846 0.957
  1845  H   0.999    C 1844 0.969
  1846  H   0.996    C 1844 0.957
  1847  O   2.089    C 1844 1.023    H 1848 0.963
  1848  H   0.974    O 1847 0.963
  1849  C   3.903    H 1853 0.980    H 1851 0.979    H 1852 0.967    N 1850 0.924
  1850  N   3.772    C 1854 0.943    C 1858 0.927    C 1849 0.924    C 1862 0.903
  1851  H   0.997    C 1849 0.979
  1852  H   0.993    C 1849 0.967
  1853  H   0.996    C 1849 0.980
  1854  C   3.913    H 1856 0.978    H 1857 0.977    H 1855 0.970    N 1850 0.943
  1855  H   0.994    C 1854 0.970
  1856  H   0.998    C 1854 0.978
  1857  H   0.996    C 1854 0.977
  1858  C   3.905    H 1859 0.978    H 1860 0.978    H 1861 0.967    N 1850 0.927
  1859  H   0.998    C 1858 0.978
  1860  H   0.997    C 1858 0.978
  1861  H   0.992    C 1858 0.967
  1862  C   3.898    C 1865 0.968    H 1864 0.967    H 1863 0.962    N 1850 0.903    O 1868 0.056
  1863  H   0.996    C 1862 0.962
  1864  H   0.997    C 1862 0.967
  1865  C   3.954    O 1868 1.020    H 1867 0.976    H 1866 0.969    C 1862 0.968
  1866  H   0.999    C 1865 0.969
  1867  H   0.997    C 1865 0.976
  1868  O   2.106    C 1865 1.020    H 1869 0.971    C 1862 0.056
  1869  H   0.976    O 1868 0.971
  1870  C   3.908    H 1874 0.975    H 1872 0.974    H 1873 0.971    N 1871 0.928
  1871  N   3.773    C 1875 0.957    C 1870 0.928    C 1879 0.922    C 1883 0.887
  1872  H   0.997    C 1870 0.974
  1873  H   0.997    C 1870 0.971
  1874  H   0.997    C 1870 0.975
  1875  C   3.917    H 1878 0.978    H 1877 0.969    N 1871 0.957    H 1876 0.955
  1876  H   0.994    C 1875 0.955
  1877  H   0.996    C 1875 0.969
  1878  H   0.997    C 1875 0.978
  1879  C   3.892    H 1882 0.978    H 1881 0.972    H 1880 0.967    N 1871 0.922
  1880  H   0.993    C 1879 0.967
  1881  H   0.996    C 1879 0.972
  1882  H   0.997    C 1879 0.978
  1883  C   3.870    H 1885 0.972    H 1884 0.961    C 1886 0.931    N 1871 0.887    O 1889 0.069
  1884  H   0.996    C 1883 0.961
  1885  H   0.999    C 1883 0.972
  1886  C   3.948    O 1889 1.042    H 1888 0.974    H 1887 0.971    C 1883 0.931
  1887  H   0.996    C 1886 0.971
  1888  H   0.998    C 1886 0.974
  1889  O   2.137    C 1886 1.042    H 1890 0.970    C 1883 0.069
  1890  H   0.975    O 1889 0.970
  1891  C   3.861    H 1893 0.972    H 1894 0.968    H 1895 0.968    N 1892 0.906
  1892  N   3.705    C 1896 0.922    C 1900 0.918    C 1891 0.906    C 1904 0.878
  1893  H   0.991    C 1891 0.972
  1894  H   0.993    C 1891 0.968
  1895  H   0.992    C 1891 0.968
  1896  C   3.895    H 1898 0.976    H 1897 0.975    H 1899 0.973    N 1892 0.922
  1897  H   0.994    C 1896 0.975
  1898  H   0.996    C 1896 0.976
  1899  H   0.990    C 1896 0.973
  1900  C   3.885    H 1901 0.978    H 1903 0.977    H 1902 0.969    N 1892 0.918
  1901  H   0.994    C 1900 0.978
  1902  H   0.989    C 1900 0.969
  1903  H   0.995    C 1900 0.977
  1904  C   3.847    H 1906 0.972    H 1905 0.959    C 1907 0.929    N 1892 0.878    O 1910 0.066
  1905  H   0.996    C 1904 0.959
  1906  H   0.996    C 1904 0.972
  1907  C   3.944    O 1910 1.047    H 1908 0.966    H 1909 0.965    C 1904 0.929
  1908  H   0.999    C 1907 0.966
  1909  H   0.997    C 1907 0.965
  1910  O   2.138    C 1907 1.047    H 1911 0.959    C 1904 0.066
  1911  H   0.971    O 1910 0.959
  1912  C   3.887    H 1915 0.983    H 1916 0.977    H 1914 0.968    N 1913 0.908
  1913  N   3.750    C 1921 0.946    C 1917 0.939    C 1912 0.908    C 1925 0.877
  1914  H   0.992    C 1912 0.968
  1915  H   0.997    C 1912 0.983
  1916  H   0.995    C 1912 0.977
  1917  C   3.917    H 1918 0.979    H 1919 0.978    H 1920 0.970    N 1913 0.939
  1918  H   0.995    C 1917 0.979
  1919  H   0.997    C 1917 0.978
  1920  H   0.996    C 1917 0.970
  1921  C   3.912    H 1924 0.977    H 1922 0.976    H 1923 0.970    N 1913 0.946
  1922  H   0.997    C 1921 0.976
  1923  H   0.996    C 1921 0.970
  1924  H   0.996    C 1921 0.977
  1925  C   3.880    C 1928 0.972    H 1927 0.967    H 1926 0.963    N 1913 0.877    O 1931 0.056
  1926  H   0.996    C 1925 0.963
  1927  H   0.997    C 1925 0.967
  1928  C   3.944    O 1931 1.008    H 1930 0.973    C 1925 0.972    H 1929 0.963
  1929  H   0.996    C 1928 0.963
  1930  H   0.998    C 1928 0.973
  1931  O   2.089    C 1928 1.008    H 1932 0.959    C 1925 0.056
  1932  H   0.971    O 1931 0.959
  1933  C   3.897    H 1935 0.981    H 1937 0.973    H 1936 0.972    N 1934 0.919
  1934  N   3.771    C 1938 0.953    C 1942 0.926    C 1933 0.919    C 1946 0.895
  1935  H   0.998    C 1933 0.981
  1936  H   0.996    C 1933 0.972
  1937  H   0.993    C 1933 0.973
  1938  C   3.923    H 1939 0.975    H 1940 0.975    H 1941 0.972    N 1934 0.953
  1939  H   0.994    C 1938 0.975
  1940  H   0.997    C 1938 0.975
  1941  H   0.997    C 1938 0.972
  1942  C   3.903    H 1945 0.977    H 1943 0.973    H 1944 0.967    N 1934 0.926
  1943  H   0.997    C 1942 0.973
  1944  H   0.991    C 1942 0.967
  1945  H   0.997    C 1942 0.977
  1946  C   3.888    H 1948 0.967    C 1949 0.964    H 1947 0.952    N 1934 0.895    O 1952 0.059
  1947  H   0.997    C 1946 0.952
  1948  H   0.998    C 1946 0.967
  1949  C   3.943    O 1952 1.022    H 1950 0.970    C 1946 0.964    H 1951 0.958
  1950  H   1.000    C 1949 0.970
  1951  H   0.995    C 1949 0.958
  1952  O   2.111    C 1949 1.022    H 1953 0.968    C 1946 0.059
  1953  H   0.974    O 1952 0.968
  1954  C   3.911    H 1956 0.975    H 1957 0.973    H 1958 0.972    N 1955 0.932
  1955  N   3.765    C 1959 0.940    C 1954 0.932    C 1963 0.930    C 1967 0.890
  1956  H   0.997    C 1954 0.975
  1957  H   0.997    C 1954 0.973
  1958  H   0.994    C 1954 0.972
  1959  C   3.911    H 1960 0.977    H 1961 0.973    H 1962 0.968    N 1955 0.940
  1960  H   0.996    C 1959 0.977
  1961  H   0.996    C 1959 0.973
  1962  H   0.995    C 1959 0.968
  1963  C   3.906    H 1964 0.976    H 1965 0.975    H 1966 0.973    N 1955 0.930
  1964  H   0.996    C 1963 0.976
  1965  H   0.995    C 1963 0.975
  1966  H   0.995    C 1963 0.973
  1967  C   3.873    H 1968 0.968    H 1969 0.961    C 1970 0.956    N 1955 0.890
  1968  H   0.997    C 1967 0.968
  1969  H   0.996    C 1967 0.961
  1970  C   3.941    O 1973 1.012    H 1971 0.973    H 1972 0.962    C 1967 0.956
  1971  H   0.998    C 1970 0.973
  1972  H   0.997    C 1970 0.962
  1973  O   2.026    C 1970 1.012    H 1974 0.796    O  101 0.084
  1974  H   0.976    O 1973 0.796    O  101 0.157
  1975  C   3.911    H 1977 0.977    H 1979 0.965    N 1976 0.957    H 1978 0.954
  1976  N   3.785    C 1975 0.957    C 1980 0.935    C 1984 0.932    C 1988 0.881
  1977  H   0.998    C 1975 0.977
  1978  H   0.993    C 1975 0.954
  1979  H   0.994    C 1975 0.965
  1980  C   3.910    H 1983 0.977    H 1981 0.976    H 1982 0.963    N 1976 0.935
  1981  H   0.996    C 1980 0.976
  1982  H   0.995    C 1980 0.963
  1983  H   0.997    C 1980 0.977
  1984  C   3.913    H 1986 0.976    H 1987 0.972    H 1985 0.967    N 1976 0.932
  1985  H   0.995    C 1984 0.967
  1986  H   0.996    C 1984 0.976
  1987  H   0.998    C 1984 0.972
  1988  C   3.881    H 1989 0.964    H 1990 0.959    C 1991 0.950    N 1976 0.881    O 1994 0.078
  1989  H   0.997    C 1988 0.964
  1990  H   0.996    C 1988 0.959
  1991  C   3.956    O 1994 1.049    H 1993 0.962    H 1992 0.961    C 1988 0.950
  1992  H   0.998    C 1991 0.961
  1993  H   1.000    C 1991 0.962
  1994  O   2.117    C 1991 1.049    H 1995 0.785    O  206 0.095    C 1988 0.078
  1995  H   0.977    O 1994 0.785    O  206 0.181
  1996  C   3.933    H 2000 0.978    H 1998 0.977    H 1999 0.975    N 1997 0.961
  1997  N   3.760    C 1996 0.961    C 2005 0.921    C 2001 0.911    C 2009 0.886
  1998  H   0.996    C 1996 0.977
  1999  H   0.993    C 1996 0.975
  2000  H   0.998    C 1996 0.978
  2001  C   3.893    H 2003 0.976    H 2002 0.973    H 2004 0.973    N 1997 0.911
  2002  H   0.996    C 2001 0.973
  2003  H   0.996    C 2001 0.976
  2004  H   0.994    C 2001 0.973
  2005  C   3.903    H 2008 0.977    H 2006 0.975    H 2007 0.974    N 1997 0.921
  2006  H   0.995    C 2005 0.975
  2007  H   0.996    C 2005 0.974
  2008  H   0.996    C 2005 0.977
  2009  C   3.890    H 2010 0.965    H 2011 0.961    C 2012 0.959    N 1997 0.886    O 2015 0.073
  2010  H   0.997    C 2009 0.965
  2011  H   0.996    C 2009 0.961
  2012  C   3.955    O 2015 1.036    H 2013 0.974    H 2014 0.963    C 2009 0.959
  2013  H   0.999    C 2012 0.974
  2014  H   0.996    C 2012 0.963
  2015  O   2.024    C 2012 1.036    H 2016 0.683    O  367 0.150    C 2009 0.073
  2016  H   0.980    O 2015 0.683    O  367 0.287
 
 --------------------------------------------
          xTB calculation for sTDA...
 --------------------------------------------
 
 reading parameter file /home/karl/Software/xtb2/.param_stda2.xtb
 
      method parameters     
 k(s)        :  1.6000
 k(p)        :  2.1800
 k(d)        :  1.9500
 k(f)        :  2.0000
 k(R-V)      :  2.2750
 k(R-R)      :  1.7650
 Tscal       :  0.2580
 Gscal       :  1.0000
 fpol        :  1.0000
 Zcnf        :  0.3430
 Zqf         :  0.0000
 kcn         :  2.7000
 Ryd Hsplit  :  0.7000
 lshift(virt):  3.1000
 lshift(OS)  :  0.2000
 wllscaling  :  2.6000
 
 mowrcut     : 3.000
 
  Z AO/shell   Hii/eV     exponent
  1     Sun Feb 14 09:53:25 CET 2016    EN: 2.327 GAM: 0.473  GM3: 0.0000
     1s    -14.339618    1.220000
     2sp    -3.348946    0.600000
  6     Sun Feb 14 09:53:25 CET 2016    EN: 2.731 GAM: 0.422  GM3: 0.0000
     2s    -22.009312    1.565095
     2p    -13.020408    1.596905
     3sp    -3.914040    0.824500
  7     Sun Feb 14 09:53:25 CET 2016    EN: 3.573 GAM: 0.504  GM3: 0.0000
     2s    -25.722000    2.064844
     2p    -18.684912    1.801692
     3sp    -4.344791    0.921400
  8     Sun Feb 14 09:53:25 CET 2016    EN: 3.700 GAM: 0.587  GM3: 0.0000
     2s    -33.859000    2.418661
     2p    -22.175911    1.973969
     3sp    -4.259392    1.013700
 
 Nbf   :        12456
 T(el) :     0.0
 calculating S/T integrals ...
 cpu time for ints    82.0390420000000     
 Nao   :        12456
 making H0...
 making H1...
 cpu time for H       19.1970630000000     
 solving ...
 cpu time for diag    619.058522000000     
 
 gap (eV)           :   3.172
 Koopmans IP (eV)   :  11.071
 Eel (Eh)           : -4173.916826

          eigenvalues
 #    :        2436       2437       2438       2439       2440       2441       2442       2443
 occ. :        2.000      2.000      2.000      2.000      2.000      2.000      2.000      2.000
 eps  :       -12.060    -12.043    -11.990    -11.832    -11.829    -11.639    -11.633    -11.518
 #    :        2444       2445       2446       2447       2448       2449       2450       2451
 occ. :        2.000      2.000      2.000      2.000      2.000      0.000      0.000      0.000
 eps  :       -11.396    -11.297    -11.294    -11.218    -11.072     -7.899     -7.873     -7.812
 #    :        2452       2453       2454       2455       2456       2457       2458       2459
 occ. :        0.000      0.000      0.000      0.000      0.000      0.000      0.000      0.000
 eps  :        -7.640     -7.596     -7.581     -7.531     -7.530     -7.492     -7.379     -7.323
                            1  SCC done.
 writing mo output ...
 molden style : F
 
speedup  2.79
cpu  time for all   15 m 16.1 s
wall time for all    5 m 28.8 s
