 
        ______________________________________
       |                                      |
       |           ==================         |
       |                 x T B                |
       |           ==================         |
       |               S. Grimme              |
       |        Universitaet Bonn, MCTC       |
       |         2015-18, Version 5.8.1       |
       |      Sun Jun  3 17:06:45 CEST 2018   |
       |______________________________________|
 
        This code comes without any warranty
        for non-commercial, academia use only.
        Preliminary GFN2 test version.
        Cite GFN-xTB work as:
        S. Grimme, C. Bannwarth, P. Shushkov
        JCTC, 13 (2017) 1989-2009
        for GFN2:
        C. Bannwarth, S. Ehlert, S. Grimme
        to be published.
        sTDA-xTB:
        S. Grimme  &  C. Bannwarth, JCP 145 (2016) 054103
        in the mass-spec context additionally:
        V. Asgeirsson, C.Bauer, S. Grimme, Chem. Sci. 8 (2017) 4879
 
        with help from
        P. Shushkov, G. Brandenburg, S. Dohm, J. Pisarek,
        F. März, M. Checinski, S. Ehrlich, S. Spicher, 
        P. Pracht, E. Caldeweyher, S. Ehlert, and C. Bannwarth.
 
        usage        :
        xtb <coord_file> [options]
        where <coord_file> is a valid file of TM)
        (*coord, Bohr) or xmol (*xyz, Angstroem)
        format.

        options:
        -chrg <int>   : molecular charge
        -uhf  <int>   : # of unpaired electrons(=2*S)
        -nox          : skip second, extended part in sTDA-xTB
        -pop          : do population analysis
                      : (default for -nox)
        -mowr <real>  : cut MO write above (def.3 Eh)
        -molden       : write formatted molden file
        -parx <file>  : read parameters for sTDA-xTB
                        calc (def:~/.param_stda2.xtb)
        -parv <file>  : read parameters for vTB part in
                        sTDA-xTB (def: ~/.param_stda1.xtb)
        -xtemp <real> : el. temp for xTB (def. 0 K)
        -etemp <real> : el. temp for GFN (def. 300 K)
        -fod          : calculate the FOD and write
                        molden.input file with
                        appropriate occupations
                        for plotting. Def. T=12500 K
 
        -gfn1         : use GFN-xTB
        -gfn2         : use GFN2-xTB
        -gfn2d3       : GFN2-xTB with D3 instead of D4
        -grad         : GFNn-xTB gradient
        -acc <real>   : GFNn-xTB accuracy (def. 1.0)
        -opt [level]  : optimize at GFNn-xTB
                      : level=crude,vloose,loose,
                      :       tight,vtight
        -hess         : compute Hessian at GFNn-xTB
        -ohess        : optimize and compute Hessian
        -omd          : optimize and do MD
        -siman        : conformational search
        -screen       : opt. loop over ensemble
        -gmd          : annealed MD for GMD procedure
        -modef        : vib mode following
        -gbsa [string1] [string2]
                        use GBSA implicit solvent
                        for solvent [string1] and
                        solvation state [string2]=
                        reference, bar1M (default=1M)
        additional GFN/opt/MD/siman options read from
        $XTBHOME/.xtbrc or $set in coordinate file
 
       spin and charge state information can be on:
       <.CHRG> (charge) and <.UHF> (=nalpha-nbeta)
       -uhf and -chrg override the file info.
       useful machine settings:
       setenv MKL_NUM_THREADS <NCORE_ON_YOUR_MACHINE>
       setenv OMP_STACKSIZE 500m
       limit stacksize unlimited
 
       total energies in Eh, gaps/HL energies in eV
       please read REVISION and HOWTO files carefully
         180  days left until this code expires
 =============================
  # OMP threads =           8
 =============================
 
 xtbhome directory:/home/karl/Software/xtb2/
 
 
 name of molecule           :
 comment line               :
 number of atoms            :  2940
 number of electrons        :  7140
 charge                     :  0
 spin                       : 0.0
 first test random number   :  0.1747
 
 -----------------------------------------
      charge density (VTB) calculation
 -----------------------------------------
 
      method parameters     
 k(s)        :  1.8000
 k(p)        :  2.8350
 k(d)        :  2.0860
 k(f)        :  2.0000
 Tscal       :  0.3300
 Gscal       :  0.3910
 fpol        :  1.0000
 Zcnf        :  0.6500
 Zqf         :  0.0000
 kcn         :  0.3000
 kEN1        : -0.5900
 wllscal     :  2.6000
 
     -------------------------
     ! NO SOLVENT MODEL USED !
     -------------------------
 
 doing EN charges ...
 sum q :  0.9547918D-14
 point charge moment (au)
     X       Y       Z   
   1.4116  -1.2383  -0.8877  total (Debye):    5.279
 
            Z      q(EN)   CN      Cart. coordinates
     1  C   4.0   -0.23    4.03    64.64752    41.47948    27.45772
     2  C   4.0    0.19    3.01    65.19555    41.10154    30.17892
     3  O   6.0   -0.10    1.11    63.58928    41.83853    31.70960
     4  O   6.0   -0.09    1.05    67.12307    39.92991    30.87812
     5  H   1.0    0.07    1.00    63.77825    39.64645    26.89080
     6  H   1.0    0.07    0.99    66.31048    41.76294    26.17270
     7  H   1.0    0.09    1.00    63.24913    42.89678    27.02308
     8  C   4.0   -0.28    4.04    13.37926    22.84679    36.71738
     9  C   4.0    0.16    3.02    12.20763    24.54754    38.72048
    10  O   6.0   -0.09    1.06    13.60603    24.92549    40.62911
    11  O   6.0   -0.08    1.05    10.37460    25.92704    37.94570
    12  H   1.0    0.07    1.00    11.81079    22.07200    35.54575
    13  H   1.0    0.11    1.01    14.22964    21.25942    37.47327
    14  H   1.0    0.09    1.00    14.36192    23.99952    35.39457
    15  C   4.0   -0.29    4.05    13.68162     2.38105    48.56596
    16  C   4.0    0.21    3.01    11.86748     2.53223    50.81095
    17  O   6.0   -0.11    1.07    13.00131     2.94797    52.73847
    18  O   6.0   -0.09    1.05     9.59981     2.07870    50.43301
    19  H   1.0    0.07    0.99    15.72252     2.24877    49.09508
    20  H   1.0    0.12    1.01    13.20918     0.88817    47.43212
    21  H   1.0    0.10    1.00    13.53044     3.89284    47.28094
    22  C   4.0   -0.25    4.03     0.45353    22.82789    26.07822
    23  C   4.0    0.17    3.01     2.26767    21.39170    24.47195
    24  O   6.0   -0.08    1.06     1.51178    20.84368    22.24207
    25  O   6.0   -0.08    1.05     4.57314    21.16493    25.07666
    26  H   1.0    0.08    1.00    -1.42674    22.90348    25.20894
    27  H   1.0    0.08    1.00     1.11494    24.79320    26.19160
    28  H   1.0    0.09    1.00     0.43464    22.37436    28.04353
    29  C   4.0   -0.26    4.03    56.63509    41.57397    48.60375
    30  C   4.0    0.18    3.01    58.88386    40.64801    50.05506
    31  O   6.0   -0.08    1.06    58.33584    39.43858    52.05817
    32  O   6.0   -0.09    1.04    61.13263    40.98816    49.39366
    33  H   1.0    0.10    1.00    55.59574    40.08109    47.82896
    34  H   1.0    0.09    1.00    57.14531    42.84009    47.09197
    35  H   1.0    0.07    0.99    55.23669    42.55663    49.86609
    36  C   4.0   -0.28    4.04    62.51213     1.07714    30.33010
    37  C   4.0    0.20    3.01    61.22712     2.62672    28.25140
    38  O   6.0   -0.09    1.05    62.26647     2.77790    26.15381
    39  O   6.0   -0.10    1.06    59.07283     3.30702    28.79942
    40  H   1.0    0.09    1.00    63.83494     1.90862    31.59622
    41  H   1.0    0.10    1.00    63.24913    -0.65385    29.70649
    42  H   1.0    0.08    1.00    61.15153     0.54802    31.80409
    43  C   4.0   -0.21    4.01    16.32723    28.25140    48.60375
    44  C   4.0    0.17    3.02    14.75876    26.47506    50.20624
    45  O   6.0   -0.09    1.08    15.77921    25.53020    52.15266
    46  O   6.0   -0.08    1.05    12.50999    25.98373    49.56373
    47  H   1.0    0.06    0.99    16.32723    27.74118    46.52505
    48  H   1.0    0.07    1.00    15.25009    30.04664    48.75493
    49  H   1.0    0.07    1.00    18.29255    28.23251    49.37476
    50  C   4.0   -0.25    4.03     5.04557    13.90838    45.06996
    51  C   4.0    0.18    3.02     7.33214    15.34457    44.55974
    52  O   6.0   -0.09    1.06     9.25966    15.00442    45.92034
    53  O   6.0   -0.09    1.06     7.16206    17.27210    43.16134
    54  H   1.0    0.06    0.99     5.25344    12.32101    46.52505
    55  H   1.0    0.10    1.01     3.64717    15.13670    45.73137
    56  H   1.0    0.08    1.00     4.38416    12.98242    43.33142
    57  C   4.0   -0.24    4.03    11.33836    43.55818    11.79189
    58  C   4.0    0.19    3.02    13.71941    42.08420    12.28322
    59  O   6.0   -0.10    1.10    14.36192    40.17557    11.01710
    60  O   6.0   -0.10    1.07    14.81545    42.59442    14.28633
    61  H   1.0    0.10    1.00    11.86748    45.39122    11.18718
    62  H   1.0    0.08    1.00    10.18562    42.95347    10.18562
    63  H   1.0    0.07    0.99    10.52577    43.80385    13.75720
    64  C   4.0   -0.27    4.05    23.54599     3.32592    46.18490
    65  C   4.0    0.20    3.02    23.30032     2.83459    43.38811
    66  O   6.0   -0.10    1.06    22.18538     0.86927    42.76450
    67  O   6.0   -0.11    1.16    24.24518     4.40306    41.95192
    68  H   1.0    0.08    1.00    25.37902     2.68341    46.92190
    69  H   1.0    0.11    1.01    23.60268     5.25344    46.43057
    70  H   1.0    0.08    1.00    21.92082     2.53223    47.18646
    71  C   4.0   -0.23    4.01     6.42507    45.84475    17.63114
    72  C   4.0    0.18    3.01     4.17629    44.37077    18.68939
    73  O   6.0   -0.08    1.05     4.53534    42.14089    19.52087
    74  O   6.0   -0.10    1.05     2.05980    45.35342    18.72718
    75  H   1.0    0.07    1.00     8.01244    46.01483    18.97285
    76  H   1.0    0.06    0.99     5.82036    47.75337    16.87525
    77  H   1.0    0.09    1.00     7.21875    45.08886    15.93039
    78  C   4.0   -0.26    4.02    17.40438    30.95371    25.05777
    79  C   4.0    0.19    3.02    18.29255    28.19471    25.39792
    80  O   6.0   -0.10    1.06    17.59335    27.00418    27.24985
    81  O   6.0   -0.09    1.08    19.87992    27.28764    23.84834
    82  H   1.0    0.08    1.00    18.40593    32.12534    26.43727
    83  H   1.0    0.11    1.01    18.00909    31.53953    23.28142
    84  H   1.0    0.07    1.00    15.30678    31.10489    25.20894
    85  C   4.0   -0.29    4.02    67.51991    30.51907     0.07559
    86  C   4.0    0.20    3.00    69.89151    29.17737     1.09604
    87  O   6.0   -0.08    1.05    70.02380    28.93170     3.47710
    88  O   6.0   -0.11    1.05    71.55447    28.47817    -0.29858
    89  H   1.0    0.13    1.01    66.27269    30.91592     1.45509
    90  H   1.0    0.07    0.99    66.53725    29.23406    -1.28123
    91  H   1.0    0.09    1.00    67.78447    32.29542    -0.88439
    92  C   4.0   -0.22    4.02     4.85660    36.26384     1.73855
    93  C   4.0    0.19    3.01     6.93529    37.56775     0.20787
    94  O   6.0   -0.11    1.06     6.31168    39.34409    -1.11116
    95  O   6.0   -0.08    1.05     9.24076    36.84966     0.39684
    96  H   1.0    0.07    1.00     3.11805    37.41657     1.37950
    97  H   1.0    0.07    1.00     4.66762    34.24183     1.26612
    98  H   1.0    0.08    1.00     5.23454    36.26384     3.77945
    99  C   4.0   -0.22    4.04    60.66020    46.92190    18.65160
   100  C   4.0    0.20    3.02    60.41454    45.06996    20.74919
   101  O   6.0   -0.10    1.07    59.63975    42.97237    20.03110
   102  O   6.0   -0.11    1.06    60.83028    45.73137    22.92238
   103  H   1.0    0.06    0.99    62.70111    47.46992    18.31144
   104  H   1.0    0.09    1.01    59.62085    46.20380    17.08312
   105  H   1.0    0.06    0.99    59.52637    48.69824    19.19962
   106  C   4.0   -0.22    4.04    61.64286    32.42770    24.15070
   107  C   4.0    0.21    3.02    59.24291    33.22138    25.26564
   108  O   6.0   -0.10    1.12    57.22090    33.44815    24.03731
   109  O   6.0   -0.13    1.34    59.28070    33.50484    27.57110
   110  H   1.0    0.08    1.00    61.83183    30.40569    24.50975
   111  H   1.0    0.08    1.00    61.62396    32.74895    22.09090
   112  H   1.0    0.06    0.99    63.23023    33.24028    25.36012
   113  C   4.0   -0.28    4.01    34.05286    16.42172    41.63066
   114  C   4.0    0.18    3.01    34.18514    13.58713    42.48104
   115  O   6.0   -0.09    1.06    32.37101    12.66116    43.67157
   116  O   6.0   -0.09    1.05    36.03707    12.18873    41.95192
   117  H   1.0    0.08    1.00    32.50329    17.25320    42.68891
   118  H   1.0    0.07    1.00    35.79141    17.38548    42.27317
   119  H   1.0    0.12    1.01    33.80720    16.59179    39.74094
   120  C   4.0   -0.25    4.04    38.68269    43.27472     3.34481
   121  C   4.0    0.19    3.02    39.68424    43.14244     0.73699
   122  O   6.0   -0.09    1.06    40.04329    41.02595    -0.20409
   123  O   6.0   -0.09    1.06    40.17557    45.16445    -0.39306
   124  H   1.0    0.07    1.00    40.00550    44.48415     4.42196
   125  H   1.0    0.08    1.00    36.77407    43.99282     3.57158
   126  H   1.0    0.09    1.00    38.75828    41.59287     4.45975
   127  C   4.0   -0.20    4.01    13.28477     2.94797    14.36192
   128  C   4.0    0.18    3.01    14.53199     0.45353    15.08001
   129  O   6.0   -0.10    1.14    15.85480     0.64251    17.02643
   130  O   6.0   -0.08    1.04    14.34302    -1.52312    13.73831
   131  H   1.0    0.07    0.99    13.30367     3.45820    12.30212
   132  H   1.0    0.06    0.99    11.20607     2.94797    14.85325
   133  H   1.0    0.07    0.99    14.32412     4.51645    15.36347
   134  C   4.0   -0.25    4.02    49.64310    44.72981    33.56153
   135  C   4.0    0.19    3.01    47.22425    43.12355    33.35366
   136  O   6.0   -0.10    1.07    45.99593    42.93457    35.31898
   137  O   6.0   -0.10    1.13    46.52505    42.10309    31.33166
   138  H   1.0    0.09    1.00    50.36120    44.61643    35.43236
   139  H   1.0    0.06    0.99    49.39744    46.77072    32.88123
   140  H   1.0    0.09    1.00    51.00370    44.01172    32.27652
   141  C   4.0   -0.25    4.02    45.59909    36.50951    19.36969
   142  C   4.0    0.17    3.01    42.70781    36.26384    19.33190
   143  O   6.0   -0.09    1.08    41.59287    34.84655    17.72563
   144  O   6.0   -0.10    1.18    41.51728    37.30319    21.12714
   145  H   1.0    0.08    1.00    46.12821    38.22916    18.36814
   146  H   1.0    0.09    1.00    46.29829    36.88745    21.24052
   147  H   1.0    0.08    1.00    46.60064    34.94103    18.46262
   148  C   4.0   -0.24    4.03     1.30391    45.06996    11.79189
   149  C   4.0    0.20    3.01     0.17008    46.26049     9.44863
   150  O   6.0   -0.07    1.04    -1.91807    45.44791     8.48487
   151  O   6.0   -0.12    1.07     1.13384    48.20691     8.84392
   152  H   1.0    0.08    1.00     0.66140    43.10465    11.84858
   153  H   1.0    0.07    1.00     3.40151    45.24004    11.58402
   154  H   1.0    0.09    1.00     0.62361    46.05262    13.43595
   155  C   4.0   -0.25    4.04    33.08910    48.84942     2.34326
   156  C   4.0    0.18    3.01    32.99462    50.45568     0.01890
   157  O   6.0   -0.09    1.05    34.46860    52.30761    -0.16630
   158  O   6.0   -0.09    1.05    31.40725    49.88877    -1.64028
   159  H   1.0    0.08    1.01    34.43081    49.90766     3.49599
   160  H   1.0    0.08    1.00    31.27496    48.86831     3.36371
   161  H   1.0    0.09    1.00    33.58043    46.90300     2.04090
   162  C   4.0   -0.28    4.03    52.00526    10.71475    22.79009
   163  C   4.0    0.19    3.01    53.12020     9.35414    25.15225
   164  O   6.0   -0.09    1.06    52.64776     7.02978    25.24674
   165  O   6.0   -0.11    1.15    54.36742    10.52577    26.75852
   166  H   1.0    0.11    1.01    53.46035    10.65805    21.50508
   167  H   1.0    0.09    1.00    51.38165    12.62337    23.11135
   168  H   1.0    0.08    1.00    50.39899     9.54312    22.16649
   169  C   4.0   -0.25    4.03    17.02643    45.01327    28.61045
   170  C   4.0    0.17    3.01    16.78077    46.84631    26.39947
   171  O   6.0   -0.08    1.04    18.76498    47.60220    25.24674
   172  O   6.0   -0.09    1.15    14.51310    47.54550    26.00263
   173  H   1.0    0.07    0.99    18.42483    45.80696    29.98995
   174  H   1.0    0.09    1.00    15.28788    44.78650    29.64980
   175  H   1.0    0.09    1.00    17.78232    43.19914    28.10022
   176  C   4.0   -0.23    4.01    27.83566    44.50305     2.87238
   177  C   4.0    0.21    3.00    25.15225    45.22114     3.87394
   178  O   6.0   -0.11    1.05    23.26253    44.67312     2.72121
   179  O   6.0   -0.11    1.17    25.13336    46.43057     5.89594
   180  H   1.0    0.07    0.99    28.25140    45.25894     0.96376
   181  H   1.0    0.07    1.00    27.89236    42.42435     2.60782
   182  H   1.0    0.08    1.00    29.44193    44.88099     4.10071
   183  C   4.0   -0.24    4.05     7.89905    28.17581    14.66427
   184  C   4.0    0.18    3.02    10.62026    27.68449    14.28633
   185  O   6.0   -0.09    1.06    11.35725    25.49240    14.73986
   186  O   6.0   -0.08    1.06    11.94307    29.68759    13.94618
   187  H   1.0    0.07    1.00     7.44552    30.19782    14.22964
   188  H   1.0    0.07    1.00     6.80301    26.83411    13.49264
   189  H   1.0    0.09    1.00     7.14316    27.53331    16.44062
   190  C   4.0   -0.26    4.04     3.81725     1.37950    17.10202
   191  C   4.0    0.20    3.02     3.23143     2.72121    19.57756
   192  O   6.0   -0.10    1.06     5.00777     2.92908    21.07044
   193  O   6.0   -0.10    1.07     1.05825     3.42040    20.03110
   194  H   1.0    0.10    1.00     2.32436     1.30391    15.77921
   195  H   1.0    0.08    1.00     5.48021     2.17318    16.21385
   196  H   1.0    0.08    1.00     4.51645    -0.44598    17.76342
   197  C   4.0   -0.25    4.04    25.79476    40.85588    42.12199
   198  C   4.0    0.20    3.02    23.69716    42.42435    41.00705
   199  O   6.0   -0.11    1.07    21.78854    42.48104    42.29207
   200  O   6.0   -0.10    1.11    24.03731    43.74716    39.06064
   201  H   1.0    0.06    0.99    27.47662    40.95036    40.76139
   202  H   1.0    0.08    1.00    26.38057    41.51728    43.97392
   203  H   1.0    0.10    1.01    25.26564    38.94725    42.15979
   204  C   4.0   -0.26    4.04    46.44946     4.78101    23.18694
   205  C   4.0    0.20    3.01    44.74871     5.78256    21.08934
   206  O   6.0   -0.10    1.07    42.49994     5.21564    21.44839
   207  O   6.0   -0.10    1.05    45.67468     6.91640    19.29410
   208  H   1.0    0.07    0.99    48.26360     5.91484    23.16804
   209  H   1.0    0.10    1.00    45.58019     4.68652    24.96328
   210  H   1.0    0.09    1.00    46.95969     2.87238    22.77120
   211  C   4.0   -0.24    4.03    59.52637    14.92883     8.16362
   212  C   4.0    0.21    3.01    57.67444    17.12092     7.61560
   213  O   6.0   -0.11    1.06    56.67288    17.12092     5.55579
   214  O   6.0   -0.10    1.06    57.82561    18.87836     9.12738
   215  H   1.0    0.10    1.00    61.37830    15.25009     7.52111
   216  H   1.0    0.06    0.99    59.58306    14.68317    10.31790
   217  H   1.0    0.08    1.00    58.94055    13.26588     7.08647
   218  C   4.0   -0.30    4.05     6.91640     5.31013    34.80875
   219  C   4.0    0.19    3.02     9.12738     5.91484    33.08910
   220  O   6.0   -0.10    1.06    11.05490     6.74632    34.07176
   221  O   6.0   -0.09    1.06     8.74943     5.51800    30.78364
   222  H   1.0    0.10    1.00     5.14005     5.87705    34.14735
   223  H   1.0    0.10    1.00     7.04868     6.08492    36.62289
   224  H   1.0    0.09    1.01     7.14316     3.30702    35.05442
   225  C   4.0   -0.25    4.03    59.92321     5.34792     9.25966
   226  C   4.0    0.20    3.02    58.01459     7.12427    10.48798
   227  O   6.0   -0.09    1.06    58.84607     8.59825    12.13204
   228  O   6.0   -0.12    1.26    55.74692     6.97309     9.95886
   229  H   1.0    0.10    1.01    60.03659     3.81725    10.54467
   230  H   1.0    0.08    1.00    59.11063     4.62983     7.48331
   231  H   1.0    0.07    0.99    61.92632     5.95264     9.08958
   232  C   4.0   -0.25    4.02    45.01327    14.70207    35.81031
   233  C   4.0    0.16    3.02    44.40856    14.26743    33.01351
   234  O   6.0   -0.08    1.04    45.80696    12.94462    31.55842
   235  O   6.0   -0.08    1.05    42.44324    15.36347    32.18203
   236  H   1.0    0.09    1.01    47.03528    14.68317    35.69692
   237  H   1.0    0.08    1.00    44.20069    16.42172    36.56620
   238  H   1.0    0.08    1.00    44.27628    13.19029    37.03863
   239  C   4.0   -0.26    4.03    25.83255     6.97309     2.55113
   240  C   4.0    0.18    3.01    27.26875     9.52422     2.74010
   241  O   6.0   -0.10    1.09    26.77742    10.90372     4.61093
   242  O   6.0   -0.09    1.05    28.91281     9.82657     1.03935
   243  H   1.0    0.10    1.01    27.24985     5.59359     2.79679
   244  H   1.0    0.08    1.00    24.60423     6.76522     4.19519
   245  H   1.0    0.08    1.00    24.94438     6.99199     0.69920
   246  C   4.0   -0.29    4.06    46.67623     0.64251    47.73448
   247  C   4.0    0.22    3.02    44.89989     1.68186    45.80696
   248  O   6.0   -0.11    1.07    45.56129     1.32281    43.63377
   249  O   6.0   -0.12    1.21    42.97237     2.75900    46.56285
   250  H   1.0    0.08    1.00    45.65578    -0.69164    48.94390
   251  H   1.0    0.11    1.00    48.20691    -0.37039    47.07307
   252  H   1.0    0.10    1.01    47.29984     2.28657    48.66044
   253  C   4.0   -0.23    4.04    32.03085    20.16338    36.60399
   254  C   4.0    0.23    3.02    30.16003    18.34924    35.58354
   255  O   6.0   -0.13    1.51    30.36790    16.08157    36.26384
   256  O   6.0   -0.13    1.25    28.64825    19.14292    34.07176
   257  H   1.0    0.09    1.01    33.80720    19.44528    35.98038
   258  H   1.0    0.06    0.99    31.86078    22.12869    35.71582
   259  H   1.0    0.07    1.00    31.80409    20.40904    38.68269
   260  C   4.0   -0.24    4.04    47.35653    19.69094    41.93302
   261  C   4.0    0.18    3.02    48.28250    18.85946    44.48415
   262  O   6.0   -0.10    1.11    48.41478    20.56022    46.10931
   263  O   6.0   -0.08    1.05    48.90611    16.55400    44.80540
   264  H   1.0    0.08    1.00    47.18646    18.25475    40.45903
   265  H   1.0    0.08    1.00    45.69357    20.90037    42.00861
   266  H   1.0    0.07    1.00    49.05729    20.78699    41.34720
   267  C   4.0   -0.24    4.04    29.87657     7.19986    25.00107
   268  C   4.0    0.21    3.02    31.35055     9.16517    26.45616
   269  O   6.0   -0.11    1.16    33.35366     9.92106    25.53020
   270  O   6.0   -0.10    1.07    30.36790    10.09114    28.34589
   271  H   1.0    0.07    0.99    29.34744     5.57469    26.26719
   272  H   1.0    0.08    1.00    28.13802     7.82347    24.07511
   273  H   1.0    0.09    1.01    31.18048     6.36838    23.71606
   274  C   4.0   -0.25    4.05    48.47147    23.47040    35.92369
   275  C   4.0    0.18    3.02    51.21157    23.94283    35.52685
   276  O   6.0   -0.10    1.20    51.83518    23.98062    33.22138
   277  O   6.0   -0.09    1.05    52.53438    24.52864    37.41657
   278  H   1.0    0.09    1.00    47.88566    22.16649    37.37878
   279  H   1.0    0.07    1.00    47.82896    22.44994    34.18514
   280  H   1.0    0.09    1.00    47.62109    25.30343    36.13156
   281  C   4.0   -0.25    4.05     6.23610    13.75720    21.93972
   282  C   4.0    0.20    3.01     8.69274    12.49109    21.03265
   283  O   6.0   -0.10    1.10     8.52266    10.12893    21.22162
   284  O   6.0   -0.11    1.06    10.43129    13.83279    20.42794
   285  H   1.0    0.08    1.00     6.36838    14.56979    23.84834
   286  H   1.0    0.08    1.00     5.91484    15.45796    20.82478
   287  H   1.0    0.09    1.00     4.68652    12.47219    21.90192
   288  C   4.0   -0.23    4.02    24.92549     0.39684     3.91173
   289  C   4.0    0.20    3.01    25.03887     2.04090     6.29279
   290  O   6.0   -0.12    1.07    23.24363     3.25033     7.01088
   291  O   6.0   -0.09    1.14    27.11757     1.98421     7.50221
   292  H   1.0    0.08    1.00    26.64514     0.54802     2.75900
   293  H   1.0    0.08    1.00    24.71762    -1.54202     4.51645
   294  H   1.0    0.07    0.99    23.33812     0.88817     2.60782
   295  C   4.0   -0.22    4.03    38.38033    14.68317    16.79966
   296  C   4.0    0.20    3.02    37.22760    14.85325    14.15405
   297  O   6.0   -0.11    1.12    35.26229    13.64382    13.90838
   298  O   6.0   -0.11    1.25    38.30474    16.23275    12.52888
   299  H   1.0    0.07    1.00    38.28585    16.70518    17.44217
   300  H   1.0    0.07    1.00    37.39768    13.49264    18.21696
   301  H   1.0    0.08    1.00    40.38344    14.19184    16.72407
   302  C   4.0   -0.25    4.05    57.05083    48.39588    46.65733
   303  C   4.0    0.20    3.02    55.44456    50.15333    48.05573
   304  O   6.0   -0.11    1.22    53.59263    49.17067    49.15177
   305  O   6.0   -0.09    1.05    55.76581    52.47769    47.86676
   306  H   1.0    0.08    1.00    58.27915    49.20846    45.18335
   307  H   1.0    0.08    1.00    58.37363    47.50771    47.96124
   308  H   1.0    0.08    1.00    56.08707    46.75182    45.90144
   309  C   4.0   -0.27    4.05    18.80277    38.41813    25.37902
   310  C   4.0    0.21    3.03    19.55866    37.85121    28.02464
   311  O   6.0   -0.14    1.36    21.80744    37.68114    28.49707
   312  O   6.0   -0.09    1.07    17.80122    37.71893    29.59311
   313  H   1.0    0.09    1.00    19.67205    37.30319    23.94283
   314  H   1.0    0.06    0.99    16.66738    38.21026    25.20894
   315  H   1.0    0.11    1.01    19.50197    40.23227    25.11446
   316  C   4.0   -0.23    4.02    29.15847    29.55531    17.10202
   317  C   4.0    0.21    3.02    30.17892    32.08755    17.99019
   318  O   6.0   -0.12    1.23    28.83722    33.95838    17.76342
   319  O   6.0   -0.10    1.07    32.25762    32.27652    19.01064
   320  H   1.0    0.08    1.00    28.64825    28.55376    18.85946
   321  H   1.0    0.07    0.99    27.34433    29.72539    15.98708
   322  H   1.0    0.08    1.00    30.53797    28.40258    16.10047
   323  C   4.0   -0.26    4.03    66.34828    49.75648    45.71247
   324  C   4.0    0.19    3.01    67.31204    47.48881    44.12510
   325  O   6.0   -0.11    1.14    65.83805    45.93924    43.16134
   326  O   6.0   -0.08    1.05    69.68364    47.60220    43.86054
   327  H   1.0    0.11    1.00    67.76557    50.28561    46.95969
   328  H   1.0    0.08    1.00    65.83805    51.41944    44.59753
   329  H   1.0    0.07    0.99    64.74201    49.30295    46.99748
   330  C   4.0   -0.27    4.00    62.96567    26.58844    27.45772
   331  C   4.0    0.16    3.01    62.73890    24.13180    29.12068
   332  O   6.0   -0.08    1.06    64.36407    23.71606    30.85922
   333  O   6.0   -0.09    1.14    60.75469    22.75230    29.06399
   334  H   1.0    0.07    0.99    64.74201    27.59000    28.02464
   335  H   1.0    0.09    1.00    62.75780    26.07822    25.51130
   336  H   1.0    0.11    1.01    61.37830    27.62779    27.94905
   337  C   4.0   -0.26    4.03     0.86927    46.37387    30.02775
   338  C   4.0    0.18    3.01     2.58892    48.58485    29.40414
   339  O   6.0   -0.09    1.05     4.61093    48.16911    28.27030
   340  O   6.0   -0.08    1.05     1.66296    50.75804    29.76318
   341  H   1.0    0.08    1.00     0.56692    45.97703    32.01196
   342  H   1.0    0.08    1.00    -1.02990    46.63844    29.32855
   343  H   1.0    0.09    1.00     1.60627    44.69202    29.17737
   344  C   4.0   -0.23    4.02    33.84499    41.83853     7.97464
   345  C   4.0    0.16    3.01    33.01351    41.63066    10.71475
   346  O   6.0   -0.08    1.05    34.48750    40.38344    12.22653
   347  O   6.0   -0.09    1.05    30.91592    42.55663    11.33836
   348  H   1.0    0.08    1.00    34.69537    40.08109     7.31324
   349  H   1.0    0.06    0.99    35.30008    43.40701     7.80457
   350  H   1.0    0.09    1.00    32.35211    42.19758     6.63294
   351  C   4.0   -0.24    4.05    29.63090    48.20691    18.97285
   352  C   4.0    0.20    3.03    27.09867    47.05418    19.42638
   353  O   6.0   -0.11    1.07    25.34122    48.47147    18.93505
   354  O   6.0   -0.10    1.07    26.98529    44.88099    20.35235
   355  H   1.0    0.07    0.99    30.99151    47.03528    17.82012
   356  H   1.0    0.08    1.01    30.25451    48.09353    20.95706
   357  H   1.0    0.09    1.00    29.51752    50.11553    18.31144
   358  C   4.0   -0.24    4.03    55.87920    44.12510    37.35988
   359  C   4.0    0.19    3.02    54.46190    41.70625    37.88901
   360  O   6.0   -0.10    1.10    53.80050    41.21492    40.08109
   361  O   6.0   -0.09    1.06    54.21624    40.27006    36.03707
   362  H   1.0    0.09    1.00    54.72646    45.35342    36.22605
   363  H   1.0    0.08    1.00    56.71068    44.82430    39.13622
   364  H   1.0    0.07    1.00    57.59885    43.52039    36.26384
   365  C   4.0   -0.28    4.03    35.73472    51.77849    17.82012
   366  C   4.0    0.18    3.01    38.13467    50.34230    16.98864
   367  O   6.0   -0.11    1.13    38.94725    50.51237    14.79655
   368  O   6.0   -0.08    1.05    39.30630    49.30295    18.80277
   369  H   1.0    0.10    1.00    34.27963    52.08085    16.49731
   370  H   1.0    0.09    1.00    35.05442    50.85253    19.46418
   371  H   1.0    0.08    1.00    36.22605    53.63042    18.53821
   372  C   4.0   -0.30    4.04    33.27807    42.80229    28.06243
   373  C   4.0    0.19    3.02    32.50329    40.13778    27.34433
   374  O   6.0   -0.10    1.06    30.23562    39.62755    27.09867
   375  O   6.0   -0.11    1.22    34.22294    38.51261    27.09867
   376  H   1.0    0.09    1.00    32.61667    44.23848    26.81521
   377  H   1.0    0.11    1.01    32.63557    43.23693    29.85767
   378  H   1.0    0.09    1.00    35.30008    42.91568    27.98684
   379  C   4.0   -0.25    4.04    24.73651    11.86748    24.16959
   380  C   4.0    0.18    3.02    22.29877    10.39349    24.58533
   381  O   6.0   -0.09    1.05    21.48618     8.86281    22.94127
   382  O   6.0   -0.10    1.06    21.12714    10.97931    26.53175
   383  H   1.0    0.08    1.00    25.58689    11.30056    22.37436
   384  H   1.0    0.08    1.00    24.32077    13.87059    24.05621
   385  H   1.0    0.08    1.00    26.11601    11.56512    25.66248
   386  C   4.0   -0.23    4.03    50.92811    12.73675    39.26851
   387  C   4.0    0.19    3.02    53.40366    11.84858    38.15357
   388  O   6.0   -0.09    1.06    53.29027    10.52577    36.18825
   389  O   6.0   -0.11    1.16    55.36897    12.79344    39.04174
   390  H   1.0    0.08    1.00    50.70135    14.75876    38.98505
   391  H   1.0    0.06    0.99    49.32185    11.60292    38.39923
   392  H   1.0    0.08    1.00    50.92811    12.33991    41.29051
   393  C   4.0   -0.27    4.03    60.03659     9.61871     2.34326
   394  C   4.0    0.18    3.01    58.35474     7.71008     1.00155
   395  O   6.0   -0.08    1.06    59.60196     6.14161    -0.35527
   396  O   6.0   -0.10    1.05    56.04927     7.50221     1.32281
   397  H   1.0    0.10    1.01    59.58306    11.35725     1.47399
   398  H   1.0    0.09    1.00    59.50747     9.58091     4.30858
   399  H   1.0    0.09    1.00    62.03970     9.48642     2.02201
   400  C   4.0   -0.25    4.03    18.80277    13.13360    37.11422
   401  C   4.0    0.19    3.02    18.50042    15.94929    36.84966
   402  O   6.0   -0.09    1.06    18.72718    16.95084    34.71427
   403  O   6.0   -0.10    1.06    18.06578    17.21540    38.77718
   404  H   1.0    0.07    1.00    20.39014    12.45329    35.94259
   405  H   1.0    0.10    1.01    18.95395    12.66116    39.04174
   406  H   1.0    0.07    1.00    17.15871    12.30212    36.09377
   407  C   4.0   -0.27    4.05    60.60351    28.76163    48.64155
   408  C   4.0    0.22    3.01    59.58306    28.57266    51.30228
   409  O   6.0   -0.11    1.07    58.48702    26.66403    51.90699
   410  O   6.0   -0.11    1.07    60.32005    30.14113    52.81406
   411  H   1.0    0.09    1.00    61.24602    30.59466    48.15022
   412  H   1.0    0.09    1.00    62.39875    27.79787    48.58485
   413  H   1.0    0.09    1.00    59.18622    28.06243    47.35653
   414  C   4.0   -0.26    4.07    29.36634    25.79476    29.91436
   415  C   4.0    0.21    3.04    30.19782    27.68449    31.69070
   416  O   6.0   -0.13    1.28    28.89391    29.53642    32.06865
   417  O   6.0   -0.09    1.13    32.35211    27.28764    32.71116
   418  H   1.0    0.09    1.00    30.68915    25.13336    28.51596
   419  H   1.0    0.07    1.00    28.91281    23.88614    30.68915
   420  H   1.0    0.10    1.02    27.81677    26.75852    29.08288
   421  C   4.0   -0.23    4.03    11.30056    50.55017     0.51023
   422  C   4.0    0.21    3.02    12.05645    48.66044     2.51334
   423  O   6.0   -0.11    1.07    14.28633    48.07463     2.47554
   424  O   6.0   -0.10    1.06    10.46908    47.63999     3.87394
   425  H   1.0    0.08    1.00    12.98242    51.41944    -0.26078
   426  H   1.0    0.07    0.99     9.86437    51.92967     1.20942
   427  H   1.0    0.07    1.00    10.50688    49.49192    -1.13006
   428  C   4.0   -0.25    4.05     0.86927    14.56979    35.81031
   429  C   4.0    0.18    3.02     0.79368    12.09425    34.61978
   430  O   6.0   -0.09    1.06     1.39840    10.24231    35.96148
   431  O   6.0   -0.08    1.05    -0.31180    11.81079    32.52218
   432  H   1.0    0.08    1.00    -0.50078    15.85480    34.97883
   433  H   1.0    0.08    1.01     2.87238    15.06112    35.58354
   434  H   1.0    0.08    1.00     0.69920    14.28633    37.83231
   435  C   4.0   -0.24    4.02    43.08575    28.68604    34.26073
   436  C   4.0    0.18    3.01    44.74871    31.06709    34.29853
   437  O   6.0   -0.10    1.06    44.91879    32.23872    36.32053
   438  O   6.0   -0.09    1.06    45.97703    31.57732    32.31431
   439  H   1.0    0.10    1.00    42.78340    28.06243    36.13156
   440  H   1.0    0.07    1.00    43.69046    27.00418    33.18359
   441  H   1.0    0.07    0.99    41.21492    29.47972    33.61822
   442  C   4.0   -0.24    4.03    62.66331    15.47686    40.13778
   443  C   4.0    0.18    3.01    63.87274    17.38548    41.83853
   444  O   6.0   -0.08    1.05    65.44121    16.62959    43.48259
   445  O   6.0   -0.09    1.06    63.02236    19.59646    41.74405
   446  H   1.0    0.10    1.01    63.75935    13.81390    40.19447
   447  H   1.0    0.06    0.99    62.92787    15.94929    38.04018
   448  H   1.0    0.08    1.00    60.79248    14.85325    40.78029
   449  C   4.0   -0.26    4.02    21.03265    53.70601    29.83877
   450  C   4.0    0.19    3.01    19.06733    54.82095    31.70960
   451  O   6.0   -0.11    1.10    18.59490    53.53594    33.59933
   452  O   6.0   -0.08    1.04    18.34924    57.08106    31.46394
   453  H   1.0    0.10    1.00    22.88458    53.81940    30.55687
   454  H   1.0    0.10    1.00    20.46573    52.00526    28.95060
   455  H   1.0    0.07    0.99    21.10824    55.17244    28.28920
   456  C   4.0   -0.21    4.01    24.11290    23.90503    17.72563
   457  C   4.0    0.17    3.02    25.56799    22.14759    19.44528
   458  O   6.0   -0.09    1.11    24.62313    20.04999    20.12558
   459  O   6.0   -0.09    1.12    27.64669    23.05466    20.29566
   460  H   1.0    0.07    1.00    25.43571    24.39636    16.13826
   461  H   1.0    0.06    0.99    22.27987    22.96017    17.06423
   462  H   1.0    0.08    1.00    23.69716    25.64358    18.76498
   463  C   4.0   -0.24    4.03     6.25499    15.32568    29.10178
   464  C   4.0    0.19    3.02     8.40928    16.70518    30.36790
   465  O   6.0   -0.09    1.06     8.18251    17.85791    32.40880
   466  O   6.0   -0.10    1.16    10.56357    16.49731    29.40414
   467  H   1.0    0.08    1.00     6.68963    13.37926    28.64825
   468  H   1.0    0.07    1.00     4.61093    15.26899    30.40569
   469  H   1.0    0.08    1.00     5.44241    16.27054    27.47662
   470  C   4.0   -0.28    4.05    34.82765    26.28609     4.95108
   471  C   4.0    0.19    3.02    34.05286    25.13336     7.38883
   472  O   6.0   -0.09    1.06    35.14890    25.77586     9.39194
   473  O   6.0   -0.10    1.07    32.14424    23.77275     7.29434
   474  H   1.0    0.07    1.00    33.08910    27.00418     4.00622
   475  H   1.0    0.07    1.00    35.50795    24.90659     3.51489
   476  H   1.0    0.13    1.01    36.22605    27.55220     5.21564
   477  C   4.0   -0.26    4.05    38.34254    32.38990    38.26695
   478  C   4.0    0.18    3.02    36.98194    34.50640    39.47638
   479  O   6.0   -0.09    1.07    36.22605    33.97727    41.66846
   480  O   6.0   -0.09    1.05    36.67958    36.60399    38.43703
   481  H   1.0    0.09    1.00    39.36299    33.05131    36.66068
   482  H   1.0    0.08    1.00    36.94414    31.04820    37.54885
   483  H   1.0    0.08    1.00    39.66535    31.31276    39.41968
   484  C   4.0   -0.28    4.04    34.43081     2.04090    33.99617
   485  C   4.0    0.19    3.01    33.37256     1.87083    36.64179
   486  O   6.0   -0.10    1.06    34.86544     1.73855    38.43703
   487  O   6.0   -0.09    1.06    31.02930     1.87083    36.98194
   488  H   1.0    0.08    1.00    36.49061     1.88973    33.97727
   489  H   1.0    0.11    1.00    33.69381     0.88817    32.61667
   490  H   1.0    0.08    1.00    34.22294     3.98732    33.39146
   491  C   4.0   -0.27    4.06    25.88925    34.37412     7.48331
   492  C   4.0    0.20    3.03    23.22473    33.44815     7.29434
   493  O   6.0   -0.13    1.25    21.71295    35.14890     6.97309
   494  O   6.0   -0.09    1.06    22.90348    31.08599     7.19986
   495  H   1.0    0.09    1.01    26.19160    33.82609     9.42973
   496  H   1.0    0.09    1.00    27.15536    33.42925     6.23610
   497  H   1.0    0.08    1.00    25.94594    36.41502     7.29434
   498  C   4.0   -0.33    4.03     0.58582    30.95371    11.35725
   499  C   4.0    0.17    3.02     1.51178    33.56153    11.96197
   500  O   6.0   -0.08    1.06     2.58892    34.01507    14.07846
   501  O   6.0   -0.08    1.05     1.34171    35.37567    10.41239
   502  H   1.0    0.09    1.00    -1.08659    31.10489    10.22342
   503  H   1.0    0.11    1.01     0.01890    29.98995    12.94462
   504  H   1.0    0.12    1.01     1.94642    29.98995    10.39349
   505  C   4.0   -0.26    4.01    45.93924     6.59514     3.85504
   506  C   4.0    0.17    3.01    44.88099     6.06602     6.57625
   507  O   6.0   -0.08    1.04    42.76450     4.89439     6.70853
   508  O   6.0   -0.11    1.34    46.12821     6.74632     8.52266
   509  H   1.0    0.07    0.99    45.18335     5.12116     2.53223
   510  H   1.0    0.10    1.00    45.25894     8.29590     3.08025
   511  H   1.0    0.09    1.00    47.94235     6.59514     3.93063
   512  C   4.0   -0.23    4.04    13.94618     8.78723    10.07224
   513  C   4.0    0.21    3.01    13.60603    11.64071     9.88327
   514  O   6.0   -0.11    1.06    13.07690    12.81234    11.79189
   515  O   6.0   -0.10    1.07    13.41705    12.43440     7.69118
   516  H   1.0    0.07    0.99    12.05645     7.84236    10.29901
   517  H   1.0    0.08    1.00    15.28788     8.22031    11.50843
   518  H   1.0    0.08    1.00    14.53199     7.89905     8.29590
   519  C   4.0   -0.24    4.02    11.20607    44.44635    43.21803
   520  C   4.0    0.20    3.02    11.05490    47.24315    42.36766
   521  O   6.0   -0.12    1.26     9.05179    47.96124    41.44169
   522  O   6.0   -0.09    1.07    13.00131    48.62265    42.42435
   523  H   1.0    0.08    1.00    13.19029    44.29518    43.78495
   524  H   1.0    0.07    0.99    10.62026    42.89678    41.91412
   525  H   1.0    0.08    1.01    10.05334    44.55974    44.89989
   526  C   4.0   -0.23    4.01    62.72000    54.08396    13.19029
   527  C   4.0    0.18    3.01    60.35785    53.29027    11.69740
   528  O   6.0   -0.09    1.05    58.29805    53.51704    12.86903
   529  O   6.0   -0.09    1.05    60.52792    52.57218     9.44863
   530  H   1.0    0.07    0.99    64.45855    54.12175    11.99976
   531  H   1.0    0.06    0.98    62.49324    55.92833    14.30523
   532  H   1.0    0.09    1.00    63.15464    52.74225    14.62648
   533  C   4.0   -0.26    4.04    41.80074    20.78699    22.69561
   534  C   4.0    0.18    3.01    39.02284    21.44839    22.33656
   535  O   6.0   -0.08    1.05    37.70003    22.26097    24.16959
   536  O   6.0   -0.10    1.06    38.24805    21.08934    20.16338
   537  H   1.0    0.09    1.00    42.08420    19.84212    24.47195
   538  H   1.0    0.08    1.00    42.68891    19.72874    21.16493
   539  H   1.0    0.08    1.00    42.97237    22.46884    22.75230
   540  C   4.0   -0.26    4.05    23.58378    24.96328    47.60220
   541  C   4.0    0.18    3.02    24.62313    22.35546    47.58330
   542  O   6.0   -0.09    1.05    23.73496    20.63581    48.96280
   543  O   6.0   -0.09    1.07    26.36168    22.10979    46.01483
   544  H   1.0    0.08    1.00    22.97907    25.88925    45.86365
   545  H   1.0    0.08    1.00    22.16649    25.00107    49.09508
   546  H   1.0    0.09    1.00    25.07666    26.17270    48.24470
   547  C   4.0   -0.22    4.04    41.70625    28.91281     7.23765
   548  C   4.0    0.18    3.02    44.35187    28.49707     6.50066
   549  O   6.0   -0.10    1.07    44.78650    28.62935     4.21409
   550  O   6.0   -0.08    1.05    46.01483    27.94905     8.16362
   551  H   1.0    0.08    1.00    40.89367    27.60890     8.63605
   552  H   1.0    0.07    1.00    40.53462    28.93170     5.48021
   553  H   1.0    0.07    0.99    41.55507    30.93481     7.89905
   554  C   4.0   -0.28    4.05    58.37363    52.96902    36.09377
   555  C   4.0    0.18    3.02    55.70912    53.72491    35.65913
   556  O   6.0   -0.09    1.05    54.34852    52.23203    34.41191
   557  O   6.0   -0.08    1.05    55.06661    55.87164    36.49061
   558  H   1.0    0.09    1.00    58.56261    51.13598    36.94414
   559  H   1.0    0.09    1.01    59.11063    52.74225    34.20404
   560  H   1.0    0.10    1.01    59.31850    54.42411    37.03863
   561  C   4.0   -0.26    4.05    17.61225    19.99330    13.54934
   562  C   4.0    0.19    3.02    20.04999    19.93661    12.07535
   563  O   6.0   -0.10    1.14    21.18383    17.89570    11.71630
   564  O   6.0   -0.09    1.07    20.71140    22.09090    11.35725
   565  H   1.0    0.08    1.00    16.34613    21.18383    12.41550
   566  H   1.0    0.10    1.00    16.85636    18.23586    14.07846
   567  H   1.0    0.08    1.00    18.04688    21.03265    15.30678
   568  C   4.0   -0.23    4.04    41.00705    11.86748     6.51955
   569  C   4.0    0.19    3.02    41.38500    12.85014     3.89284
   570  O   6.0   -0.09    1.06    43.59598    13.49264     3.36371
   571  O   6.0   -0.10    1.06    39.51417    12.83124     2.47554
   572  H   1.0    0.08    1.00    40.83698    13.41705     7.88016
   573  H   1.0    0.07    1.00    39.13622    10.90372     6.48176
   574  H   1.0    0.07    1.00    42.40545    10.48798     7.25655
   575  C   4.0   -0.24    4.04    45.44791    15.72252    11.05490
   576  C   4.0    0.21    3.02    46.73292    18.21696    11.60292
   577  O   6.0   -0.11    1.08    46.80851    19.72874     9.86437
   578  O   6.0   -0.11    1.13    48.22581    18.36814    13.39816
   579  H   1.0    0.09    1.00    44.59753    15.87370     9.22186
   580  H   1.0    0.07    1.00    46.80851    14.11625    10.97931
   581  H   1.0    0.08    1.00    43.84164    15.45796    12.32101
   582  C   4.0   -0.30    4.05     4.74321    21.92082    15.47686
   583  C   4.0    0.18    3.02     2.89128    22.10979    13.32257
   584  O   6.0   -0.10    1.20     3.45820    23.73496    11.67851
   585  O   6.0   -0.09    1.10     0.81258    20.97596    13.51154
   586  H   1.0    0.09    1.01     6.21720    23.26253    15.25009
   587  H   1.0    0.09    1.00     5.53690    20.04999    15.45796
   588  H   1.0    0.11    1.01     3.89284    22.48774    17.13981
   589  C   4.0   -0.28    4.05    32.46549     8.29590    18.72718
   590  C   4.0    0.20    3.02    31.38835     5.65028    18.31144
   591  O   6.0   -0.10    1.06    32.80564     4.25188    17.10202
   592  O   6.0   -0.10    1.06    29.27185     5.19675    19.12403
   593  H   1.0    0.08    1.00    34.10955     8.86281    17.63114
   594  H   1.0    0.11    1.01    33.05131     8.37149    20.59801
   595  H   1.0    0.08    1.00    30.91592     9.63760    18.72718
   596  C   4.0   -0.25    4.03    52.17533    36.52840    45.20224
   597  C   4.0    0.18    3.01    49.56751    35.69692    46.07152
   598  O   6.0   -0.08    1.05    48.50927    36.75517    47.94235
   599  O   6.0   -0.09    1.06    48.33919    34.41191    44.50305
   600  H   1.0    0.09    1.00    53.53594    36.07487    46.60064
   601  H   1.0    0.09    1.00    52.96902    35.73472    43.50149
   602  H   1.0    0.07    0.99    52.38320    38.62600    44.99437
   603  C   4.0   -0.27    4.05    57.92010    14.26743    23.20583
   604  C   4.0    0.18    3.02    59.80983    14.64538    21.08934
   605  O   6.0   -0.10    1.05    61.54837    13.09580    20.90037
   606  O   6.0   -0.09    1.14    59.39409    16.68628    19.86102
   607  H   1.0    0.08    1.00    58.63820    13.17139    24.77431
   608  H   1.0    0.07    0.99    57.31539    16.02488    24.24518
   609  H   1.0    0.11    1.01    56.33273    13.24698    22.73340
   610  C   4.0   -0.24    4.02    50.92811    20.48463    22.27987
   611  C   4.0    0.20    3.01    48.81162    22.09090    23.54599
   612  O   6.0   -0.13    1.20    47.54550    20.99486    25.09556
   613  O   6.0   -0.10    1.27    48.52816    24.39636    22.82789
   614  H   1.0    0.09    1.00    50.43679    20.23896    20.33345
   615  H   1.0    0.07    1.00    52.64776    21.69405    22.54443
   616  H   1.0    0.08    1.00    51.30606    18.72718    23.30032
   617  C   4.0   -0.24    4.02    46.07152    34.03396    11.50843
   618  C   4.0    0.21    3.01    46.50616    36.52840     9.95886
   619  O   6.0   -0.13    1.19    48.49037    37.62444    10.31790
   620  O   6.0   -0.09    1.05    44.74871    37.32209     8.61715
   621  H   1.0    0.09    1.00    44.80540    34.26073    13.07690
   622  H   1.0    0.08    1.01    45.18335    32.97572     9.97775
   623  H   1.0    0.07    0.99    47.75337    33.05131    12.28322
   624  C   4.0   -0.25    4.01    38.41813    22.44994    42.67001
   625  C   4.0    0.16    3.01    38.02129    23.09245    45.50460
   626  O   6.0   -0.08    1.05    37.47327    21.18383    46.86520
   627  O   6.0   -0.08    1.04    38.36144    25.30343    46.41167
   628  H   1.0    0.09    1.00    36.86855    23.11135    41.53618
   629  H   1.0    0.10    1.00    40.02440    23.31922    41.87633
   630  H   1.0    0.06    0.99    38.75828    20.31455    42.49994
   631  C   4.0   -0.23    4.03    67.23645    12.56668     5.63138
   632  C   4.0    0.19    3.01    68.07738    15.19340     5.14005
   633  O   6.0   -0.10    1.05    69.62695    16.21385     6.55735
   634  O   6.0   -0.08    1.06    67.02858    16.32723     3.30702
   635  H   1.0    0.08    1.00    67.34983    11.39505     3.94953
   636  H   1.0    0.08    1.00    68.15297    11.67851     7.27544
   637  H   1.0    0.07    0.99    65.21444    12.41550     6.25499
   638  C   4.0   -0.25    4.03    10.29901    29.72539    21.07044
   639  C   4.0    0.19    3.02     9.37304    31.48283    23.16804
   640  O   6.0   -0.10    1.13     7.04868    32.06865    23.09245
   641  O   6.0   -0.11    1.18    10.77144    31.97416    24.98218
   642  H   1.0    0.08    1.00    11.03600    28.00574    21.93972
   643  H   1.0    0.09    1.00     8.80612    28.98840    19.93661
   644  H   1.0    0.07    1.00    11.52733    30.85922    19.78543
   645  C   4.0   -0.24    4.01    52.79894    32.37101    13.43595
   646  C   4.0    0.19    3.01    55.55794    31.50173    12.85014
   647  O   6.0   -0.11    1.15    55.99258    29.21516    12.60447
   648  O   6.0   -0.11    1.25    57.31539    33.08910    13.19029
   649  H   1.0    0.07    0.99    52.57218    33.08910    15.40127
   650  H   1.0    0.09    1.00    51.45724    30.87812    13.36036
   651  H   1.0    0.07    1.00    52.21313    33.93948    12.16984
   652  C   4.0   -0.25    4.03    18.25475     7.84236    47.71558
   653  C   4.0    0.17    3.01    16.83746     9.95886    46.41167
   654  O   6.0   -0.09    1.09    15.09891     9.50532    44.82430
   655  O   6.0   -0.08    1.05    17.61225    12.16984    46.94079
   656  H   1.0    0.07    1.00    18.40593     6.29279    46.29829
   657  H   1.0    0.08    1.00    20.12558     8.44707    48.37698
   658  H   1.0    0.10    1.00    17.23430     7.14316    49.26516
   659  C   4.0   -0.26    4.03    46.09042    43.70936    24.26408
   660  C   4.0    0.22    3.02    48.69824    44.27628    23.03576
   661  O   6.0   -0.11    1.10    50.00215    46.05262    23.79165
   662  O   6.0   -0.12    1.14    49.26516    43.12355    21.14603
   663  H   1.0    0.08    1.00    45.16445    42.14089    23.28142
   664  H   1.0    0.09    1.00    46.29829    43.35031    26.24829
   665  H   1.0    0.09    1.00    44.93768    45.37232    24.15070
   666  C   4.0   -0.26    4.04    65.93254    26.56955    42.84009
   667  C   4.0    0.21    3.01    66.08372    29.10178    41.40390
   668  O   6.0   -0.12    1.22    64.09950    30.12223    40.79918
   669  O   6.0   -0.10    1.06    68.24745    29.70649    40.78029
   670  H   1.0    0.08    1.00    67.27424    26.73962    44.40856
   671  H   1.0    0.09    1.00    64.11840    26.04042    43.53929
   672  H   1.0    0.08    1.00    66.65063    24.90659    41.89522
   673  C   4.0   -0.24    4.02    49.07618    47.28094    11.52733
   674  C   4.0    0.19    3.01    47.88566    48.09353     9.01399
   675  O   6.0   -0.08    1.06    45.75027    47.18646     8.37149
   676  O   6.0   -0.10    1.06    48.98170    49.54861     7.59670
   677  H   1.0    0.08    1.00    50.22892    45.61798    11.18718
   678  H   1.0    0.09    1.00    47.63999    46.82741    12.85014
   679  H   1.0    0.06    0.99    50.15333    48.92500    12.39660
   680  C   4.0   -0.24    4.04    32.99462    51.19268    29.25296
   681  C   4.0    0.19    3.02    30.48128    52.45879    28.95060
   682  O   6.0   -0.09    1.06    30.50018    54.61308    27.98684
   683  O   6.0   -0.10    1.06    28.55376    51.26827    29.51752
   684  H   1.0    0.08    1.00    34.07176    51.77849    27.60890
   685  H   1.0    0.08    1.00    33.80720    52.23203    30.85922
   686  H   1.0    0.08    1.00    32.76785    49.15177    29.51752
   687  C   4.0   -0.21    4.01    67.12307     4.89439    10.62026
   688  C   4.0    0.17    3.01    69.70254     4.74321     9.44863
   689  O   6.0   -0.08    1.05    69.79703     5.17785     7.08647
   690  O   6.0   -0.08    1.04    71.68675     4.19519    10.65805
   691  H   1.0    0.07    0.99    67.12307     4.08181    12.56668
   692  H   1.0    0.07    0.99    66.32938     6.84081    10.94151
   693  H   1.0    0.07    0.99    65.72467     3.60938     9.69429
   694  C   4.0   -0.27    4.05    61.79404     1.24722    42.55663
   695  C   4.0    0.18    3.02    64.42076     1.87083    41.85743
   696  O   6.0   -0.08    1.05    64.79870     2.13539    39.47638
   697  O   6.0   -0.09    1.05    66.08372     2.00311    43.50149
   698  H   1.0    0.09    1.01    61.47279     2.39995    44.18179
   699  H   1.0    0.08    1.00    61.39720    -0.72943    42.87788
   700  H   1.0    0.09    1.00    60.50902     1.70075    41.06374
   701  C   4.0   -0.24    4.03    37.34098    49.26516    35.58354
   702  C   4.0    0.18    3.02    37.54885    46.60064    36.69848
   703  O   6.0   -0.10    1.13    36.56620    44.93768    35.28118
   704  O   6.0   -0.09    1.05    38.77718    46.12821    38.66379
   705  H   1.0    0.08    1.00    39.07953    50.17222    34.97883
   706  H   1.0    0.08    1.00    35.86700    49.41633    34.12845
   707  H   1.0    0.08    1.00    36.49061    50.51237    37.00083
   708  C   4.0   -0.27    4.05     8.33369    33.73161    35.90479
   709  C   4.0    0.18    3.02     9.52422    36.26384    36.28274
   710  O   6.0   -0.10    1.06    10.97931    36.49061    38.11577
   711  O   6.0   -0.09    1.09     9.25966    37.83231    34.46860
   712  H   1.0    0.10    1.00     6.48176    33.50484    36.60399
   713  H   1.0    0.08    1.00     9.46753    32.12534    36.58509
   714  H   1.0    0.09    1.01     8.27700    33.46705    33.90168
   715  C   4.0   -0.27    4.04    42.51883     3.87394    37.43547
   716  C   4.0    0.22    3.01    43.31252     2.47554    35.01662
   717  O   6.0   -0.14    1.22    42.74560     3.45820    33.05131
   718  O   6.0   -0.10    1.06    44.21959     0.34015    35.22449
   719  H   1.0    0.10    1.00    42.87788     5.83925    37.45437
   720  H   1.0    0.08    1.00    43.67157     3.21253    39.00394
   721  H   1.0    0.09    1.00    40.55352     3.49599    37.77562
   722  C   4.0   -0.24    4.04    31.21827    36.92525     3.74166
   723  C   4.0    0.20    3.01    31.01040    34.82765     1.83303
   724  O   6.0   -0.11    1.19    30.31120    32.63557     2.39995
   725  O   6.0   -0.10    1.07    31.29386    35.54575    -0.37417
   726  H   1.0    0.09    1.00    33.20248    37.22760     4.04401
   727  H   1.0    0.07    1.00    30.50018    36.22605     5.57469
   728  H   1.0    0.07    1.00    30.33010    38.70159     3.08025
   729  C   4.0   -0.28    4.05    22.84679    35.47016    39.19292
   730  C   4.0    0.21    3.02    22.92238    32.76785    40.21337
   731  O   6.0   -0.11    1.07    24.79320    32.27652    41.46059
   732  O   6.0   -0.10    1.06    21.07044    31.38835    39.89211
   733  H   1.0    0.10    1.01    22.62002    35.48905    37.22760
   734  H   1.0    0.11    1.01    24.52864    36.45281    39.41968
   735  H   1.0    0.07    1.00    21.39170    36.52840    40.30785
   736  C   4.0   -0.21    4.10    56.42722    41.47948    25.64358
   737  N   5.0   -0.23    3.97    55.74692    40.91257    28.44038
   738  H   1.0    0.07    1.00    58.22246    42.42435    25.11446
   739  H   1.0    0.10    1.00    56.71068    39.85432    24.50975
   740  H   1.0    0.09    1.00    55.08551    42.61332    24.66092
   741  C   4.0   -0.13    4.08    57.71223    39.45748    29.80098
   742  H   1.0    0.07    0.99    57.71223    37.35988    29.57421
   743  H   1.0    0.06    0.98    57.25870    39.53307    31.93637
   744  H   1.0    0.07    0.99    59.65865    40.19447    29.44193
   745  C   4.0   -0.19    4.09    55.72802    43.70936    29.51752
   746  H   1.0    0.09    1.00    55.06661    43.82274    31.44504
   747  H   1.0    0.08    1.00    54.49970    45.10776    28.61045
   748  H   1.0    0.07    1.00    57.63664    44.57864    29.44193
   749  C   4.0   -0.13    4.11    53.17689    39.45748    28.76163
   750  H   1.0    0.10    1.01    53.30917    37.56775    28.17581
   751  H   1.0    0.08    1.01    53.08240    39.40079    30.82143
   752  C   4.0   -0.08    4.01    50.62576    40.09998    27.43882
   753  H   1.0    0.07    1.00    50.43679    42.17868    27.83566
   754  H   1.0    0.07    0.99    50.70135    40.11888    25.32233
   755  O   6.0   -0.14    2.00    48.90611    38.72048    28.76163
   756  H   1.0    0.08    1.04    47.96124    40.13778    29.87657
   757  C   4.0   -0.20    4.15     9.97775    39.32520    17.74453
   758  N   5.0   -0.26    3.99     9.33525    36.75517    16.61069
   759  H   1.0    0.06    0.99    11.58402    40.27006    16.64849
   760  H   1.0    0.11    1.00    10.65805    39.36299    19.59646
   761  H   1.0    0.09    1.00     8.33369    40.49683    17.80122
   762  C   4.0   -0.13    4.15    11.64071    35.30008    17.13981
   763  H   1.0    0.06    0.98    12.32101    35.20559    19.21851
   764  H   1.0    0.08    1.00    13.26588    36.16935    16.19495
   765  H   1.0    0.06    0.99    11.48953    33.39146    16.13826
   766  C   4.0   -0.13    4.13     7.23765    35.65913    18.02799
   767  H   1.0    0.06    0.99     5.78256    37.28429    17.80122
   768  H   1.0    0.08    1.00     7.67229    35.30008    20.04999
   769  H   1.0    0.07    0.99     6.27389    33.97727    17.19651
   770  C   4.0   -0.14    4.06     8.67384    36.75517    13.66272
   771  H   1.0    0.11    1.02    10.05334    37.49216    12.49109
   772  H   1.0    0.08    1.00     8.48487    34.84655    12.85014
   773  C   4.0   -0.09    4.01     6.59514    38.55041    12.54778
   774  H   1.0    0.06    0.99     4.66762    38.21026    13.49264
   775  H   1.0    0.07    1.00     7.01088    40.55352    13.02021
   776  O   6.0   -0.16    2.00     6.19830    38.47482     9.88327
   777  H   1.0    0.12    1.01     4.38416    38.05908     9.75099
   778  C   4.0   -0.19    4.18    17.72563    14.34302     3.30702
   779  N   5.0   -0.26    4.01    20.16338    13.98397     4.61093
   780  H   1.0    0.10    1.00    17.29099    12.69896     2.24877
   781  H   1.0    0.10    1.01    16.40282    14.22964     4.81880
   782  H   1.0    0.07    0.99    17.21540    16.08157     2.21098
   783  C   4.0   -0.16    4.12    22.07200    13.83279     2.47554
   784  H   1.0    0.08    0.99    22.26097    15.43906     1.15273
   785  H   1.0    0.08    1.00    21.92082    12.03755     1.41729
   786  H   1.0    0.07    0.99    24.03731    13.88949     3.26923
   787  C   4.0   -0.14    4.11    20.52242    16.28944     6.25499
   788  H   1.0    0.07    1.00    19.19962    16.13826     7.89905
   789  H   1.0    0.07    0.99    22.60112    16.21385     6.72742
   790  H   1.0    0.07    0.99    20.33345    18.25475     5.51800
   791  C   4.0   -0.14    4.11    20.14448    11.58402     6.23610
   792  H   1.0    0.12    1.01    21.82633    11.48953     7.18096
   793  H   1.0    0.08    1.00    18.72718    11.58402     7.76677
   794  C   4.0   -0.09    3.98    19.72874     8.82502     5.17785
   795  H   1.0    0.06    0.98    20.91927     8.31479     3.42040
   796  H   1.0    0.07    1.00    17.76342     9.08958     4.47865
   797  O   6.0   -0.16    2.01    19.99330     7.02978     7.21875
   798  H   1.0    0.12    1.02    20.99486     5.53690     6.74632
   799  C   4.0   -0.13    4.10    41.87633    21.31611    14.90994
   800  N   5.0   -0.25    4.00    42.14089    24.09401    14.43751
   801  H   1.0    0.08    1.00    40.49683    20.93816    16.42172
   802  H   1.0    0.06    0.98    41.25272    20.08779    13.19029
   803  H   1.0    0.07    0.99    43.69046    20.40904    15.59024
   804  C   4.0   -0.25    4.13    44.04951    24.56644    12.43440
   805  H   1.0    0.11    1.01    43.38811    23.86724    10.73364
   806  H   1.0    0.12    1.01    45.84475    23.86724    12.71786
   807  H   1.0    0.09    1.00    44.37077    26.53175    12.05645
   808  C   4.0   -0.17    4.11    39.51417    24.88769    13.43595
   809  H   1.0    0.09    1.00    38.94725    24.01842    11.69740
   810  H   1.0    0.08    1.00    37.79452    24.94438    14.55089
   811  H   1.0    0.06    0.98    39.57086    26.94749    12.66116
   812  C   4.0   -0.09    4.10    42.70781    25.62468    16.89415
   813  H   1.0    0.07    1.00    42.57553    27.64669    16.32723
   814  H   1.0    0.07    1.00    41.08264    25.20894    18.19806
   815  C   4.0   -0.14    4.00    45.25894    25.09556    18.16027
   816  H   1.0    0.10    1.02    46.22270    25.56799    16.47841
   817  H   1.0    0.08    1.00    45.78806    23.14914    18.63270
   818  O   6.0   -0.10    1.95    45.84475    27.04198    20.14448
   819  H   1.0    0.08    1.17    46.99748    25.98373    21.44839
   820  C   4.0   -0.17    4.10     6.70853    39.26851    41.78184
   821  N   5.0   -0.25    3.99     4.47865    40.95036    40.83698
   822  H   1.0    0.06    0.99     7.63449    39.55196    43.70936
   823  H   1.0    0.07    0.99     8.61715    39.40079    40.83698
   824  H   1.0    0.09    1.00     6.48176    37.28429    41.51728
   825  C   4.0   -0.18    4.05     2.02201    40.27006    42.27317
   826  H   1.0    0.09    1.00     1.36060    38.45592    41.72515
   827  H   1.0    0.05    0.96     0.20787    41.55507    41.95192
   828  H   1.0    0.09    1.00     2.75900    40.04329    44.14400
   829  C   4.0   -0.17    4.09     5.21564    43.67157    41.17713
   830  H   1.0    0.10    1.00     6.82191    44.25738    40.11888
   831  H   1.0    0.07    0.99     5.46131    43.87944    43.29362
   832  H   1.0    0.07    1.00     3.60938    44.95658    40.78029
   833  C   4.0   -0.12    4.15     4.27078    40.23227    38.11577
   834  H   1.0    0.09    1.01     6.02823    40.85588    37.28429
   835  H   1.0    0.10    1.01     4.10071    38.22916    37.96459
   836  C   4.0   -0.14    4.00     2.21098    41.08264    36.15046
   837  H   1.0    0.13    1.01     0.45353    40.72359    36.81186
   838  H   1.0    0.06    0.99     2.32436    43.21803    35.99928
   839  O   6.0   -0.16    2.00     2.91018    40.17557    33.69381
   840  H   1.0    0.11    1.00     1.45509    39.98660    32.50329
   841  C   4.0   -0.19    4.15    14.83435     5.00777    37.96459
   842  N   5.0   -0.25    4.00    16.40282     3.13695    39.43858
   843  H   1.0    0.09    1.00    14.90994     5.04557    35.92369
   844  H   1.0    0.08    1.00    12.75565     4.83770    38.07798
   845  H   1.0    0.09    1.00    15.17450     6.85971    38.70159
   846  C   4.0   -0.22    4.14    18.97285     3.34481    38.30474
   847  H   1.0    0.12    1.01    20.35235     2.28657    39.15512
   848  H   1.0    0.07    1.00    19.10513     3.09915    36.22605
   849  H   1.0    0.10    1.00    19.93661     5.10226    38.36144
   850  C   4.0   -0.17    4.08    16.10047     3.53379    42.27317
   851  H   1.0    0.06    0.98    17.51776     2.22988    43.29362
   852  H   1.0    0.10    1.00    14.30523     3.15584    43.06685
   853  H   1.0    0.07    1.00    16.93194     5.38572    42.80229
   854  C   4.0   -0.11    4.15    15.28788     0.51023    38.85277
   855  H   1.0    0.09    1.01    15.32568     0.37795    36.83076
   856  H   1.0    0.07    1.00    13.20918     0.47243    39.26851
   857  C   4.0   -0.13    4.02    16.55400    -1.93886    39.72204
   858  H   1.0    0.09    1.00    18.42483    -2.09004    38.96615
   859  H   1.0    0.10    1.01    16.53510    -1.69319    41.70625
   860  O   6.0   -0.14    2.00    15.13670    -3.99866    38.90946
   861  H   1.0    0.09    0.98    14.13515    -4.88683    40.32675
   862  C   4.0   -0.15    4.12    14.55089    51.45724     7.61560
   863  N   5.0   -0.26    4.00    17.06423    52.78005     7.33214
   864  H   1.0    0.08    1.00    12.94462    52.34541     6.67073
   865  H   1.0    0.07    0.99    14.36192    49.43523     6.91640
   866  H   1.0    0.07    0.99    14.15405    51.32496     9.71319
   867  C   4.0   -0.20    4.14    17.27210    52.95012     4.44086
   868  H   1.0    0.06    0.98    19.10513    53.74381     3.55268
   869  H   1.0    0.13    1.01    17.29099    51.15488     3.76055
   870  H   1.0    0.08    1.00    15.81701    53.74381     3.17474
   871  C   4.0   -0.17    4.11    17.12092    55.47479     8.20141
   872  H   1.0    0.06    0.98    18.89726    56.68422     7.88016
   873  H   1.0    0.08    1.00    15.66583    56.55194     7.16206
   874  H   1.0    0.10    1.00    16.74297    55.43700    10.16673
   875  C   4.0   -0.10    4.12    19.14292    51.32496     8.63605
   876  H   1.0    0.08    1.01    20.86257    52.43990     8.90061
   877  H   1.0    0.09    1.01    18.65160    50.83363    10.56357
   878  C   4.0   -0.09    4.05    20.23896    48.79272     7.84236
   879  H   1.0    0.07    1.00    18.55711    47.50771     7.72898
   880  H   1.0    0.08    1.00    20.84368    48.71713     5.87705
   881  O   6.0   -0.18    2.02    22.10979    47.71558     9.20297
   882  H   1.0    0.12    1.12    23.26253    47.20535     7.80457
   883  C   4.0   -0.17    4.11    10.16673    50.05884    30.02775
   884  N   5.0   -0.24    4.00    11.56512    51.24937    32.20093
   885  H   1.0    0.06    0.99     8.33369    51.17378    29.70649
   886  H   1.0    0.10    1.00    10.97931    49.96435    28.19471
   887  H   1.0    0.08    1.00     9.48642    48.13132    30.38679
   888  C   4.0   -0.19    4.08    13.92728    49.58641    32.67336
   889  H   1.0    0.08    1.00    15.23119    49.34074    31.10489
   890  H   1.0    0.08    1.00    14.81545    50.47458    34.31742
   891  H   1.0    0.08    1.00    13.43595    47.69668    33.35366
   892  C   4.0   -0.20    4.12    12.33991    53.89498    31.29386
   893  H   1.0    0.07    0.99    10.46908    54.65087    30.57577
   894  H   1.0    0.11    1.00    13.20918    54.90788    32.74895
   895  H   1.0    0.09    1.00    13.87059    53.91388    29.97105
   896  C   4.0   -0.14    4.12     9.82657    51.79739    34.46860
   897  H   1.0    0.13    1.02    10.84703    52.59107    35.88590
   898  H   1.0    0.07    1.00     8.08803    52.98792    34.12845
   899  C   4.0   -0.14    4.03     8.52266    49.64310    35.81031
   900  H   1.0    0.09    1.01     7.35103    48.83052    34.37412
   901  H   1.0    0.10    1.01     9.88327    48.30140    36.37722
   902  O   6.0   -0.12    1.98     7.31324    50.55017    38.00239
   903  H   1.0    0.08    1.16     7.95575    49.43523    39.57086
   904  C   4.0   -0.16    4.08    26.41837     5.31013    13.02021
   905  N   5.0   -0.26    4.00    26.79631     8.01244    12.39660
   906  H   1.0    0.06    0.98    27.77897     4.72431    14.64538
   907  H   1.0    0.07    0.99    24.43416     4.74321    13.43595
   908  H   1.0    0.10    1.01    26.96639     4.28968    11.41394
   909  C   4.0   -0.13    4.05    24.90659     8.88171    10.28011
   910  H   1.0    0.07    0.99    22.94127     8.29590    10.82813
   911  H   1.0    0.07    0.99    25.32233    10.73364     9.35414
   912  H   1.0    0.05    0.96    25.05777     7.69118     8.37149
   913  C   4.0   -0.21    4.12    26.47506     9.61871    14.72097
   914  H   1.0    0.06    0.98    26.09712    11.75410    14.56979
   915  H   1.0    0.13    1.01    27.98684     9.33525    15.83590
   916  H   1.0    0.08    1.00    24.90659     8.76833    15.74142
   917  C   4.0   -0.13    4.16    29.38524     8.69274    11.33836
   918  H   1.0    0.11    1.01    30.72694     7.57780    12.26432
   919  H   1.0    0.08    1.00    29.57421     7.74788     9.48642
   920  C   4.0   -0.14    4.04    30.33010    11.33836    11.05490
   921  H   1.0    0.07    1.00    30.25451    12.15094    13.02021
   922  H   1.0    0.13    1.01    29.27185    12.66116    10.18562
   923  O   6.0   -0.18    2.02    32.82454    11.60292    10.33680
   924  H   1.0    0.12    1.06    33.63712    12.37770    11.82968
   925  C   4.0   -0.18    4.12    58.20356    28.70494    19.16182
   926  N   5.0   -0.24    3.99    56.55950    26.56955    20.18227
   927  H   1.0    0.07    0.99    57.42877    29.81988    17.49886
   928  H   1.0    0.09    1.00    59.16732    29.97105    20.39014
   929  H   1.0    0.09    1.00    59.94211    27.72228    18.70829
   930  C   4.0   -0.14    4.14    54.82095    27.87346    21.92082
   931  H   1.0    0.08    1.00    55.93589    28.59155    23.52709
   932  H   1.0    0.08    1.00    53.93278    29.55531    21.07044
   933  H   1.0    0.06    0.98    52.95012    26.96639    22.60112
   934  C   4.0   -0.21    4.09    54.91544    25.62468    17.89570
   935  H   1.0    0.09    1.00    56.01148    25.17115    16.27054
   936  H   1.0    0.09    1.00    53.64932    27.09867    17.29099
   937  H   1.0    0.08    1.00    53.51704    24.15070    18.36814
   938  C   4.0   -0.08    4.05    57.97679    24.39636    21.59957
   939  H   1.0    0.07    1.00    56.69178    22.99796    22.54443
   940  H   1.0    0.07    0.99    59.22401    25.15225    23.16804
   941  C   4.0   -0.08    4.00    59.56416    22.50664    19.82323
   942  H   1.0    0.06    0.99    60.69800    23.65937    18.40593
   943  H   1.0    0.07    1.00    58.61930    21.25942    18.42483
   944  O   6.0   -0.13    1.99    60.90587    20.97596    21.44839
   945  H   1.0    0.08    1.06    60.24446    19.14292    20.95706
   946  C   4.0   -0.17    4.12    65.83805    49.17067    22.90348
   947  N   5.0   -0.24    3.99    67.17976    51.57062    22.20428
   948  H   1.0    0.09    1.00    63.92943    49.05729    22.16649
   949  H   1.0    0.07    0.99    66.04592    49.05729    25.01997
   950  H   1.0    0.08    1.00    66.76402    47.50771    22.10979
   951  C   4.0   -0.20    4.16    67.50101    51.26827    19.36969
   952  H   1.0    0.09    1.00    68.22856    53.04461    18.74608
   953  H   1.0    0.07    0.99    68.81437    49.75648    18.65160
   954  H   1.0    0.10    1.00    65.78136    51.02260    18.38703
   955  C   4.0   -0.17    4.05    65.59239    53.93278    22.82789
   956  H   1.0    0.06    0.98    63.66487    53.70601    21.84523
   957  H   1.0    0.10    1.00    66.36718    55.64487    22.22318
   958  H   1.0    0.07    0.99    65.29003    54.12175    24.92549
   959  C   4.0   -0.14    4.09    70.00490    51.77849    23.14914
   960  H   1.0    0.07    0.99    71.00645    53.59263    22.60112
   961  H   1.0    0.12    1.01    69.79703    51.91077    25.05777
   962  C   4.0   -0.13    4.00    71.97021    49.56751    22.69561
   963  H   1.0    0.09    1.00    72.42375    49.15177    20.78699
   964  H   1.0    0.07    1.00    70.98756    47.90455    23.50819
   965  O   6.0   -0.15    2.00    74.04891    50.17222    24.37746
   966  H   1.0    0.10    1.00    73.46310    49.30295    25.96483
   967  C   4.0   -0.21    4.09    44.95658    37.60555    39.55196
   968  N   5.0   -0.25    4.00    43.84164    39.66535    41.32831
   969  H   1.0    0.07    0.99    43.69046    35.98038    39.07953
   970  H   1.0    0.08    1.00    46.60064    36.60399    40.32675
   971  H   1.0    0.12    1.01    45.35342    38.56931    37.92680
   972  C   4.0   -0.14    4.12    41.68735    41.06374    40.13778
   973  H   1.0    0.09    1.00    41.29051    42.55663    41.47948
   974  H   1.0    0.05    0.97    42.29207    42.31096    38.39923
   975  H   1.0    0.07    0.99    39.91101    39.98660    39.77873
   976  C   4.0   -0.18    4.09    42.93457    38.28585    43.69046
   977  H   1.0    0.07    1.00    44.29518    37.07642    44.72981
   978  H   1.0    0.09    1.00    42.21648    39.74094    44.89989
   979  H   1.0    0.08    1.00    41.80074    36.66068    43.12355
   980  C   4.0   -0.12    4.16    45.76916    41.81964    41.66846
   981  H   1.0    0.08    1.00    45.01327    43.31252    42.89678
   982  H   1.0    0.10    1.01    45.95814    43.06685    40.09998
   983  C   4.0   -0.09    4.03    48.43368    41.19603    42.36766
   984  H   1.0    0.07    1.01    47.86676    40.30785    44.20069
   985  H   1.0    0.07    1.00    49.22736    39.58976    41.27161
   986  O   6.0   -0.16    2.01    50.09663    43.29362    42.46214
   987  H   1.0    0.11    1.05    51.57062    42.53773    41.53618
   988  C   4.0   -0.19    4.10    18.29255    47.75337    14.77766
   989  N   5.0   -0.23    3.98    18.12247    47.54550    17.63114
   990  H   1.0    0.11    1.00    19.86102    47.73448    13.58713
   991  H   1.0    0.08    1.00    17.15871    46.35498    13.75720
   992  H   1.0    0.07    0.99    17.49886    49.56751    13.96507
   993  C   4.0   -0.15    4.03    19.10513    50.00215    18.91616
   994  H   1.0    0.04    0.95    19.52087    49.83207    21.16493
   995  H   1.0    0.09    1.00    18.23586    51.77849    18.53821
   996  H   1.0    0.07    1.00    20.93816    50.30450    17.93350
   997  C   4.0   -0.15    4.06    15.38237    47.22425    18.55711
   998  H   1.0    0.07    0.99    14.13515    48.64155    17.61225
   999  H   1.0    0.07    0.99    14.51310    45.41011    17.87681
  1000  H   1.0    0.07    0.99    15.23119    47.73448    20.61691
  1001  C   4.0   -0.14    4.13    19.80433    45.27783    18.33034
  1002  H   1.0    0.08    1.02    21.59957    45.67468    17.38548
  1003  H   1.0    0.11    1.01    19.31300    43.67157    17.32879
  1004  C   4.0   -0.09    4.05    20.91927    44.40856    20.73029
  1005  H   1.0    0.09    1.01    19.76653    43.52039    22.12869
  1006  H   1.0    0.06    0.98    21.82633    46.16600    21.71295
  1007  O   6.0   -0.19    2.03    22.60112    42.46214    20.44683
  1008  H   1.0    0.13    1.05    24.13180    43.38811    20.90037
  1009  C   4.0   -0.15    4.05    32.42770    42.34876    46.99748
  1010  N   5.0   -0.22    3.96    33.16469    41.29051    44.46525
  1011  H   1.0    0.06    0.99    33.52374    44.04951    47.69668
  1012  H   1.0    0.06    0.99    32.69226    40.72359    48.41478
  1013  H   1.0    0.09    1.00    30.46238    42.78340    46.80851
  1014  C   4.0   -0.15    4.17    36.03707    41.08264    44.46525
  1015  H   1.0    0.08    1.00    36.54730    39.72204    45.97703
  1016  H   1.0    0.07    0.99    37.07642    42.72670    45.29673
  1017  H   1.0    0.06    0.99    37.11422    40.27006    42.78340
  1018  C   4.0   -0.23    4.10    32.52218    38.47482    43.82274
  1019  H   1.0    0.12    1.00    32.97572    37.20870    45.22114
  1020  H   1.0    0.08    1.00    33.59933    37.52996    42.32986
  1021  H   1.0    0.09    1.00    30.50018    38.28585    43.59598
  1022  C   4.0   -0.15    4.08    32.80564    43.21803    42.10309
  1023  H   1.0    0.13    1.01    30.99151    43.78495    42.21648
  1024  H   1.0    0.07    0.99    33.80720    45.06996    42.46214
  1025  C   4.0   -0.18    4.02    33.08910    42.25427    39.32520
  1026  H   1.0    0.08    1.00    34.94103    41.40390    38.98505
  1027  H   1.0    0.15    1.01    31.91747    40.87477    38.87166
  1028  O   6.0   -0.15    2.02    32.50329    44.44635    37.81342
  1029  H   1.0    0.11    1.06    34.07176    44.78650    36.79296
  1030  C   4.0   -0.13    4.06    59.54526     7.76677    17.63114
  1031  N   5.0   -0.26    4.00    60.11218     6.21720    20.06889
  1032  H   1.0    0.06    0.99    57.67444     7.14316    16.74297
  1033  H   1.0    0.05    0.97    60.83028     7.19986    15.91149
  1034  H   1.0    0.07    0.99    59.94211     9.86437    17.66894
  1035  C   4.0   -0.18    4.16    62.72000     6.65184    21.05155
  1036  H   1.0    0.07    0.99    64.32627     6.27389    19.69094
  1037  H   1.0    0.08    1.00    63.24913     8.54156    21.67516
  1038  H   1.0    0.10    1.00    63.34361     5.66918    22.67671
  1039  C   4.0   -0.14    4.07    58.10907     6.91640    21.95862
  1040  H   1.0    0.06    0.98    58.24135     9.08958    22.35546
  1041  H   1.0    0.07    0.99    58.41143     5.87705    23.77275
  1042  H   1.0    0.08    1.00    56.21935     6.53845    21.22162
  1043  C   4.0   -0.11    4.18    60.30116     3.47710    19.36969
  1044  H   1.0    0.09    1.00    60.67910     2.26767    20.97596
  1045  H   1.0    0.09    1.01    61.83183     3.04246    18.08468
  1046  C   4.0   -0.10    4.00    57.99569     2.21098    17.91460
  1047  H   1.0    0.06    0.99    56.16266     2.53223    19.02954
  1048  H   1.0    0.11    1.01    58.07128     2.83459    16.04377
  1049  O   6.0   -0.15    1.99    58.10907    -0.35149    17.51776
  1050  H   1.0    0.09    0.98    58.35474    -0.78613    15.62803
  1051  C   4.0   -0.19    4.12    30.12223     6.67073    45.71247
  1052  N   5.0   -0.24    4.01    31.33166     5.53690    43.38811
  1053  H   1.0    0.07    0.99    31.10489     5.68808    47.31874
  1054  H   1.0    0.07    1.00    28.04353     6.40617    45.80696
  1055  H   1.0    0.11    1.01    30.72694     8.52266    45.58019
  1056  C   4.0   -0.18    4.10    30.42459     6.99199    40.98816
  1057  H   1.0    0.08    1.00    30.84033     5.87705    39.26851
  1058  H   1.0    0.09    1.00    28.40258     7.12427    41.17713
  1059  H   1.0    0.07    0.99    30.95371     8.97620    40.55352
  1060  C   4.0   -0.19    4.08    34.18514     5.89594    43.23693
  1061  H   1.0    0.12    1.01    34.99772     5.23454    44.84320
  1062  H   1.0    0.07    1.00    34.58198     7.95575    43.06685
  1063  H   1.0    0.05    0.97    35.28118     5.02667    41.51728
  1064  C   4.0   -0.11    4.13    30.36790     2.79679    43.42590
  1065  H   1.0    0.10    1.01    28.47817     2.79679    42.74560
  1066  H   1.0    0.08    1.01    31.48283     2.15429    41.76294
  1067  C   4.0   -0.15    4.03    30.76474     1.07714    45.56129
  1068  H   1.0    0.12    1.01    32.61667     1.07714    46.12821
  1069  H   1.0    0.09    1.01    29.83877     1.51178    47.31874
  1070  O   6.0   -0.15    2.01    29.85767    -1.39084    45.16445
  1071  H   1.0    0.10    1.00    30.95371    -2.61916    46.12821
  1072  C   4.0   -0.16    4.11    53.64932    17.34768    34.10955
  1073  N   5.0   -0.25    4.00    52.55328    16.96974    31.44504
  1074  H   1.0    0.07    0.99    55.55794    16.45951    34.29853
  1075  H   1.0    0.08    1.00    53.91388    19.35079    34.58198
  1076  H   1.0    0.07    1.00    52.40210    16.62959    35.64023
  1077  C   4.0   -0.19    4.14    52.11864    14.05956    31.46394
  1078  H   1.0    0.07    1.00    51.00370    13.53044    33.16469
  1079  H   1.0    0.10    1.00    50.94701    13.34147    30.00885
  1080  H   1.0    0.08    1.00    53.97057    13.13360    31.70960
  1081  C   4.0   -0.19    4.09    49.88877    18.10357    31.31276
  1082  H   1.0    0.10    1.01    50.45568    19.99330    31.59622
  1083  H   1.0    0.07    0.99    48.71713    17.42327    32.93792
  1084  H   1.0    0.08    1.00    48.90611    17.72563    29.53642
  1085  C   4.0   -0.11    4.11    54.32962    17.65004    29.36634
  1086  H   1.0    0.08    1.01    53.81940    17.13981    27.41992
  1087  H   1.0    0.10    1.01    55.95479    16.53510    29.70649
  1088  C   4.0   -0.14    4.03    55.12331    20.35235    28.81832
  1089  H   1.0    0.08    1.00    53.36586    21.22162    28.17581
  1090  H   1.0    0.11    1.01    55.89809    21.07044    30.48128
  1091  O   6.0   -0.14    2.00    57.08862    20.59801    26.98529
  1092  H   1.0    0.10    1.08    58.54371    21.52398    27.85456
  1093  C   4.0   -0.17    4.13    15.42016    17.25320    44.33297
  1094  N   5.0   -0.28    4.02    14.68317    19.86102    44.89989
  1095  H   1.0    0.10    1.00    14.28633    16.00598    45.42901
  1096  H   1.0    0.06    0.99    17.46107    16.57290    44.57864
  1097  H   1.0    0.10    1.01    14.96663    17.21540    42.36766
  1098  C   4.0   -0.13    4.13    16.47841    21.65626    43.55818
  1099  H   1.0    0.07    0.99    18.33034    20.99486    44.40856
  1100  H   1.0    0.06    0.98    16.06267    23.79165    43.93613
  1101  H   1.0    0.08    1.00    16.87525    21.44839    41.51728
  1102  C   4.0   -0.15    4.12    12.09425    20.67360    44.03061
  1103  H   1.0    0.07    1.00    11.96197    22.69561    44.61643
  1104  H   1.0    0.09    1.00    11.54623    20.57912    42.06530
[...]
  2601  H   0.999    C 2600 0.978
  2602  H   0.996    C 2600 0.959
  2603  O   2.044    C 2600 1.023    H 2604 0.797    O  291 0.099    C 2597 0.054
  2604  H   0.978    O 2603 0.797    O  291 0.171
  2605  C   3.911    H 2608 0.983    H 2609 0.978    H 2607 0.978    N 2606 0.928
  2606  N   3.758    C 2610 0.938    C 2605 0.928    C 2618 0.923    C 2614 0.909
  2607  H   0.994    C 2605 0.978
  2608  H   0.997    C 2605 0.983
  2609  H   0.995    C 2605 0.978
  2610  C   3.920    H 2612 0.980    H 2611 0.978    H 2613 0.978    N 2606 0.938
  2611  H   0.996    C 2610 0.978
  2612  H   0.996    C 2610 0.980
  2613  H   0.996    C 2610 0.978
  2614  C   3.890    H 2617 0.980    H 2615 0.978    H 2616 0.974    N 2606 0.909
  2615  H   0.996    C 2614 0.978
  2616  H   0.994    C 2614 0.974
  2617  H   0.995    C 2614 0.980
  2618  C   3.898    H 2619 0.970    H 2620 0.968    C 2621 0.966    N 2606 0.923
  2619  H   0.996    C 2618 0.970
  2620  H   0.998    C 2618 0.968
  2621  C   3.950    O 2624 1.012    H 2623 0.970    H 2622 0.969    C 2618 0.966
  2622  H   0.998    C 2621 0.969
  2623  H   0.999    C 2621 0.970
  2624  O   2.015    C 2621 1.012    H 2625 0.837    O  262 0.076
  2625  H   0.978    O 2624 0.837    O  262 0.129
  2626  C   3.921    H 2629 0.979    H 2630 0.978    H 2628 0.974    N 2627 0.943
  2627  N   3.762    C 2635 0.944    C 2626 0.943    C 2631 0.921    C 2639 0.871
  2628  H   0.994    C 2626 0.974
  2629  H   0.998    C 2626 0.979
  2630  H   0.995    C 2626 0.978
  2631  C   3.900    H 2633 0.973    H 2634 0.965    H 2632 0.964    N 2627 0.921
  2632  H   0.995    C 2631 0.964
  2633  H   0.997    C 2631 0.973
  2634  H   0.994    C 2631 0.965
  2635  C   3.908    H 2636 0.974    H 2637 0.973    H 2638 0.968    N 2627 0.944
  2636  H   0.997    C 2635 0.974
  2637  H   0.994    C 2635 0.973
  2638  H   0.995    C 2635 0.968
  2639  C   3.870    C 2642 0.975    H 2641 0.962    H 2640 0.956    N 2627 0.871    O 2645 0.061
  2640  H   0.997    C 2639 0.956
  2641  H   0.999    C 2639 0.962
  2642  C   3.962    O 2645 1.045    C 2639 0.975    H 2643 0.957    H 2644 0.956
  2643  H   1.000    C 2642 0.957
  2644  H   0.997    C 2642 0.956
  2645  O   2.056    C 2642 1.045    H 2646 0.741    O  304 0.106    C 2639 0.061
  2646  H   0.975    O 2645 0.741    O  304 0.219
  2647  C   3.928    H 2651 0.978    H 2649 0.976    H 2650 0.968    N 2648 0.966
  2648  N   3.744    C 2647 0.966    C 2652 0.929    C 2656 0.927    C 2660 0.843
  2649  H   0.998    C 2647 0.976
  2650  H   0.994    C 2647 0.968
  2651  H   0.998    C 2647 0.978
  2652  C   3.913    H 2654 0.978    H 2655 0.976    H 2653 0.974    N 2648 0.929
  2653  H   0.995    C 2652 0.974
  2654  H   0.996    C 2652 0.978
  2655  H   0.995    C 2652 0.976
  2656  C   3.912    H 2659 0.981    H 2658 0.977    H 2657 0.976    N 2648 0.927
  2657  H   0.994    C 2656 0.976
  2658  H   0.996    C 2656 0.977
  2659  H   0.997    C 2656 0.981
  2660  C   3.832    H 2662 0.962    H 2661 0.962    C 2663 0.940    N 2648 0.843    O 2666 0.058
  2661  H   0.998    C 2660 0.962
  2662  H   0.998    C 2660 0.962
  2663  C   3.953    O 2666 1.052    H 2665 0.972    H 2664 0.942    C 2660 0.940
  2664  H   0.993    C 2663 0.942
  2665  H   0.997    C 2663 0.972
  2666  O   2.053    C 2663 1.052    H 2667 0.743    O  256 0.106    C 2660 0.058
  2667  H   0.976    O 2666 0.743    O  256 0.219
  2668  C   3.921    H 2671 0.979    H 2670 0.974    H 2672 0.972    N 2669 0.941
  2669  N   3.757    C 2677 0.960    C 2668 0.941    C 2673 0.931    C 2681 0.844
  2670  H   0.995    C 2668 0.974
  2671  H   0.996    C 2668 0.979
  2672  H   0.996    C 2668 0.972
  2673  C   3.905    H 2674 0.980    H 2675 0.974    H 2676 0.965    N 2669 0.931
  2674  H   0.998    C 2673 0.980
  2675  H   0.995    C 2673 0.974
  2676  H   0.994    C 2673 0.965
  2677  C   3.931    H 2679 0.978    H 2678 0.978    H 2680 0.969    N 2669 0.960
  2678  H   0.997    C 2677 0.978
  2679  H   0.998    C 2677 0.978
  2680  H   0.994    C 2677 0.969
  2681  C   3.857    H 2683 0.975    C 2684 0.955    H 2682 0.952    N 2669 0.844    O 2687 0.081
  2682  H   0.995    C 2681 0.952
  2683  H   0.998    C 2681 0.975
  2684  C   3.947    O 2687 1.025    H 2685 0.961    H 2686 0.961    C 2681 0.955
  2685  H   0.998    C 2684 0.961
  2686  H   0.997    C 2684 0.961
  2687  O   2.079    C 2684 1.025    H 2688 0.776    O  578 0.099    C 2681 0.081
  2688  H   0.972    O 2687 0.776    O  578 0.177
  2689  C   3.887    H 2693 0.980    H 2692 0.979    H 2691 0.976    N 2690 0.906
  2690  N   3.747    C 2698 0.958    C 2694 0.913    C 2689 0.906    C 2702 0.905
  2691  H   0.994    C 2689 0.976
  2692  H   0.996    C 2689 0.979
  2693  H   0.995    C 2689 0.980
  2694  C   3.889    H 2697 0.984    H 2695 0.977    H 2696 0.970    N 2690 0.913
  2695  H   0.996    C 2694 0.977
  2696  H   0.990    C 2694 0.970
  2697  H   0.998    C 2694 0.984
  2698  C   3.925    H 2700 0.976    H 2701 0.974    H 2699 0.970    N 2690 0.958
  2699  H   0.992    C 2698 0.970
  2700  H   0.997    C 2698 0.976
  2701  H   0.998    C 2698 0.974
  2702  C   3.884    H 2703 0.968    H 2704 0.966    C 2705 0.952    N 2690 0.905
  2703  H   0.996    C 2702 0.968
  2704  H   0.999    C 2702 0.966
  2705  C   3.945    O 2708 1.014    H 2706 0.972    H 2707 0.971    C 2702 0.952
  2706  H   0.996    C 2705 0.972
  2707  H   0.997    C 2705 0.971
  2708  O   2.087    C 2705 1.014    H 2709 0.962
  2709  H   0.975    O 2708 0.962
  2710  C   3.913    H 2714 0.978    H 2712 0.973    H 2713 0.969    N 2711 0.939
  2711  N   3.739    C 2715 0.940    C 2710 0.939    C 2719 0.930    C 2723 0.853
  2712  H   0.995    C 2710 0.973
  2713  H   0.997    C 2710 0.969
  2714  H   0.996    C 2710 0.978
  2715  C   3.916    H 2716 0.980    H 2717 0.978    H 2718 0.969    N 2711 0.940
  2716  H   0.997    C 2715 0.980
  2717  H   0.995    C 2715 0.978
  2718  H   0.995    C 2715 0.969
  2719  C   3.897    H 2721 0.980    H 2720 0.967    H 2722 0.965    N 2711 0.930
  2720  H   0.994    C 2719 0.967
  2721  H   0.997    C 2719 0.980
  2722  H   0.994    C 2719 0.965
  2723  C   3.868    C 2726 0.977    H 2724 0.967    H 2725 0.959    N 2711 0.853    O 2729 0.056
  2724  H   0.997    C 2723 0.967
  2725  H   0.994    C 2723 0.959
  2726  C   3.962    O 2729 1.018    C 2723 0.977    H 2728 0.973    H 2727 0.958
  2727  H   0.997    C 2726 0.958
  2728  H   1.000    C 2726 0.973
  2729  O   1.995    C 2726 1.018    H 2730 0.696    O  311 0.129    C 2723 0.056
  2730  H   0.975    O 2729 0.696    O  311 0.260
  2731  C   3.909    H 2735 0.977    H 2734 0.972    H 2733 0.972    N 2732 0.935
  2732  N   3.762    C 2740 0.954    C 2731 0.935    C 2736 0.933    C 2744 0.866
  2733  H   0.995    C 2731 0.972
  2734  H   0.996    C 2731 0.972
  2735  H   0.997    C 2731 0.977
  2736  C   3.914    H 2737 0.980    H 2738 0.977    H 2739 0.975    N 2732 0.933
  2737  H   0.997    C 2736 0.980
  2738  H   0.997    C 2736 0.977
  2739  H   0.995    C 2736 0.975
  2740  C   3.911    H 2741 0.974    H 2742 0.966    H 2743 0.965    N 2732 0.954
  2741  H   0.995    C 2740 0.974
  2742  H   0.995    C 2740 0.966
  2743  H   0.996    C 2740 0.965
  2744  C   3.867    C 2747 0.971    H 2746 0.964    H 2745 0.964    N 2732 0.866
  2745  H   0.998    C 2744 0.964
  2746  H   0.997    C 2744 0.964
  2747  C   3.961    O 2750 1.022    C 2744 0.971    H 2748 0.971    H 2749 0.967
  2748  H   0.997    C 2747 0.971
  2749  H   0.998    C 2747 0.967
  2750  O   2.049    C 2747 1.022    H 2751 0.816    O   59 0.085
  2751  H   0.977    O 2750 0.816    O   59 0.148
  2752  C   3.901    H 2756 0.975    H 2754 0.972    H 2755 0.968    N 2753 0.928
  2753  N   3.758    C 2757 0.942    C 2752 0.928    C 2761 0.915    C 2765 0.901
  2754  H   0.995    C 2752 0.972
  2755  H   0.997    C 2752 0.968
  2756  H   0.994    C 2752 0.975
  2757  C   3.913    H 2758 0.975    H 2759 0.970    H 2760 0.967    N 2753 0.942
  2758  H   0.998    C 2757 0.975
  2759  H   0.993    C 2757 0.970
  2760  H   0.997    C 2757 0.967
  2761  C   3.898    H 2763 0.978    H 2762 0.978    H 2764 0.974    N 2753 0.915
  2762  H   0.994    C 2761 0.978
  2763  H   0.995    C 2761 0.978
  2764  H   0.996    C 2761 0.974
  2765  C   3.904    C 2768 0.985    H 2766 0.968    H 2767 0.963    N 2753 0.901
  2766  H   0.999    C 2765 0.968
  2767  H   0.995    C 2765 0.963
  2768  C   3.956    O 2771 0.994    C 2765 0.985    H 2769 0.968    H 2770 0.966
  2769  H   0.999    C 2768 0.968
  2770  H   0.998    C 2768 0.966
  2771  O   2.000    C 2768 0.994    H 2772 0.810    O  200 0.083
  2772  H   0.975    O 2771 0.810    O  200 0.144
  2773  C   3.906    H 2775 0.978    H 2777 0.975    H 2776 0.969    N 2774 0.928
  2774  N   3.762    C 2782 0.941    C 2778 0.929    C 2773 0.928    C 2786 0.884
  2775  H   0.996    C 2773 0.978
  2776  H   0.994    C 2773 0.969
  2777  H   0.996    C 2773 0.975
  2778  C   3.910    H 2781 0.979    H 2780 0.977    H 2779 0.971    N 2774 0.929
  2779  H   0.995    C 2778 0.971
  2780  H   0.996    C 2778 0.977
  2781  H   0.996    C 2778 0.979
  2782  C   3.915    H 2785 0.975    H 2783 0.973    H 2784 0.972    N 2774 0.941
  2783  H   0.995    C 2782 0.973
  2784  H   0.995    C 2782 0.972
  2785  H   0.998    C 2782 0.975
  2786  C   3.882    C 2789 0.967    H 2788 0.966    H 2787 0.959    N 2774 0.884    O 2792 0.062
  2787  H   0.996    C 2786 0.959
  2788  H   0.998    C 2786 0.966
  2789  C   3.957    O 2792 1.023    H 2791 0.975    C 2786 0.967    H 2790 0.961
  2790  H   0.998    C 2789 0.961
  2791  H   0.998    C 2789 0.975
  2792  O   2.039    C 2789 1.023    H 2793 0.741    O  318 0.122    C 2786 0.062
  2793  H   0.977    O 2792 0.741    O  318 0.223
  2794  C   3.885    H 2796 0.983    H 2798 0.980    H 2797 0.972    N 2795 0.898
  2795  N   3.752    C 2799 0.965    C 2803 0.938    C 2794 0.898    C 2807 0.871
  2796  H   0.995    C 2794 0.983
  2797  H   0.993    C 2794 0.972
  2798  H   0.995    C 2794 0.980
  2799  C   3.929    H 2800 0.975    H 2801 0.974    H 2802 0.969    N 2795 0.965
  2800  H   0.998    C 2799 0.975
  2801  H   0.996    C 2799 0.974
  2802  H   0.996    C 2799 0.969
  2803  C   3.912    H 2806 0.979    H 2804 0.975    H 2805 0.972    N 2795 0.938
  2804  H   0.996    C 2803 0.975
  2805  H   0.997    C 2803 0.972
  2806  H   0.995    C 2803 0.979
  2807  C   3.876    C 2810 0.970    H 2809 0.964    H 2808 0.962    N 2795 0.871    O 2813 0.054
  2808  H   0.997    C 2807 0.962
  2809  H   0.998    C 2807 0.964
  2810  C   3.945    O 2813 1.008    C 2807 0.970    H 2812 0.967    H 2811 0.958
  2811  H   0.996    C 2810 0.958
  2812  H   0.998    C 2810 0.967
  2813  O   2.046    C 2810 1.008    H 2814 0.828    O  283 0.075    C 2807 0.054
  2814  H   0.973    O 2813 0.828    O  283 0.127
  2815  C   3.888    H 2819 0.982    H 2817 0.980    H 2818 0.970    N 2816 0.910
  2816  N   3.741    C 2820 0.940    C 2824 0.926    C 2815 0.910    C 2828 0.894
  2817  H   0.995    C 2815 0.980
  2818  H   0.993    C 2815 0.970
  2819  H   0.996    C 2815 0.982
  2820  C   3.916    H 2823 0.986    H 2821 0.977    H 2822 0.969    N 2816 0.940
  2821  H   0.996    C 2820 0.977
  2822  H   0.992    C 2820 0.969
  2823  H   0.998    C 2820 0.986
  2824  C   3.908    H 2827 0.981    H 2826 0.980    H 2825 0.979    N 2816 0.926
  2825  H   0.994    C 2824 0.979
  2826  H   0.997    C 2824 0.980
  2827  H   0.996    C 2824 0.981
  2828  C   3.879    H 2829 0.969    C 2831 0.966    H 2830 0.959    N 2816 0.894
  2829  H   0.998    C 2828 0.969
  2830  H   0.995    C 2828 0.959
  2831  C   3.963    O 2834 1.035    H 2833 0.970    C 2828 0.966    H 2832 0.959
  2832  H   1.000    C 2831 0.959
  2833  H   0.999    C 2831 0.970
  2834  O   2.021    C 2831 1.035    H 2835 0.751    O  648 0.105
  2835  H   0.977    O 2834 0.751    O  648 0.209
  2836  C   3.908    H 2840 0.979    H 2839 0.974    H 2838 0.973    N 2837 0.930
  2837  N   3.749    C 2841 0.942    C 2845 0.937    C 2836 0.930    C 2849 0.847
  2838  H   0.996    C 2836 0.973
  2839  H   0.996    C 2836 0.974
  2840  H   0.997    C 2836 0.979
  2841  C   3.909    H 2844 0.972    H 2843 0.966    H 2842 0.961    N 2837 0.942
  2842  H   0.993    C 2841 0.961
  2843  H   0.996    C 2841 0.966
  2844  H   0.999    C 2841 0.972
  2845  C   3.905    H 2846 0.976    H 2847 0.972    H 2848 0.966    N 2837 0.937
  2846  H   0.996    C 2845 0.976
  2847  H   0.996    C 2845 0.972
  2848  H   0.994    C 2845 0.966
  2849  C   3.892    C 2852 1.006    H 2850 0.963    H 2851 0.957    N 2837 0.847
  2850  H   0.995    C 2849 0.963
  2851  H   0.995    C 2849 0.957
  2852  C   3.940    O 2855 1.017    C 2849 1.006    H 2853 0.957    H 2854 0.911
  2853  H   1.000    C 2852 0.957
  2854  H   0.994    C 2852 0.911
  2855  O   2.020    C 2852 1.017    H 2856 0.784    O  144 0.087
  2856  H   0.975    O 2855 0.784    O  144 0.174
  2857  C   3.922    H 2860 0.974    H 2859 0.972    H 2861 0.968    N 2858 0.954
  2858  N   3.759    C 2857 0.954    C 2862 0.934    C 2866 0.932    C 2870 0.861
  2859  H   0.996    C 2857 0.972
  2860  H   0.997    C 2857 0.974
  2861  H   0.994    C 2857 0.968
  2862  C   3.909    H 2864 0.976    H 2863 0.975    H 2865 0.961    N 2858 0.934
  2863  H   0.995    C 2862 0.975
  2864  H   0.998    C 2862 0.976
  2865  H   0.994    C 2862 0.961
  2866  C   3.911    H 2868 0.982    H 2867 0.976    H 2869 0.972    N 2858 0.932
  2867  H   0.994    C 2866 0.976
  2868  H   0.999    C 2866 0.982
  2869  H   0.996    C 2866 0.972
  2870  C   3.866    C 2873 0.972    H 2871 0.967    H 2872 0.944    N 2858 0.861    O 2876 0.060
  2871  H   0.998    C 2870 0.967
  2872  H   0.995    C 2870 0.944
  2873  C   3.955    O 2876 1.023    C 2870 0.972    H 2874 0.966    H 2875 0.961
  2874  H   0.998    C 2873 0.966
  2875  H   0.999    C 2873 0.961
  2876  O   2.043    C 2873 1.023    H 2877 0.759    O  276 0.104    C 2870 0.060
  2877  H   0.977    O 2876 0.759    O  276 0.205
  2878  C   3.884    H 2880 0.974    H 2882 0.972    H 2881 0.971    N 2879 0.904
  2879  N   3.772    C 2887 0.963    C 2883 0.955    C 2878 0.904    C 2891 0.876
  2880  H   0.994    C 2878 0.974
  2881  H   0.994    C 2878 0.971
  2882  H   0.996    C 2878 0.972
  2883  C   3.920    H 2885 0.974    H 2884 0.973    H 2886 0.960    N 2879 0.955
  2884  H   0.997    C 2883 0.973
  2885  H   0.997    C 2883 0.974
  2886  H   0.994    C 2883 0.960
  2887  C   3.925    H 2889 0.971    H 2890 0.970    H 2888 0.967    N 2879 0.963
  2888  H   0.996    C 2887 0.967
  2889  H   0.996    C 2887 0.971
  2890  H   0.998    C 2887 0.970
  2891  C   3.863    H 2892 0.966    H 2893 0.957    C 2894 0.953    N 2879 0.876    O 2897 0.053
  2892  H   0.998    C 2891 0.966
  2893  H   0.996    C 2891 0.957
  2894  C   3.938    O 2897 1.012    H 2895 0.969    H 2896 0.960    C 2891 0.953
  2895  H   0.996    C 2894 0.969
  2896  H   0.997    C 2894 0.960
  2897  O   2.084    C 2894 1.012    H 2898 0.958    C 2891 0.053
  2898  H   0.972    O 2897 0.958
  2899  C   3.909    H 2902 0.980    H 2903 0.978    H 2901 0.975    N 2900 0.926
  2900  N   3.760    C 2908 0.955    C 2904 0.932    C 2899 0.926    C 2912 0.868
  2901  H   0.994    C 2899 0.975
  2902  H   0.997    C 2899 0.980
  2903  H   0.996    C 2899 0.978
  2904  C   3.911    H 2905 0.978    H 2907 0.978    H 2906 0.975    N 2900 0.932
  2905  H   0.997    C 2904 0.978
  2906  H   0.995    C 2904 0.975
  2907  H   0.996    C 2904 0.978
  2908  C   3.917    H 2910 0.972    H 2911 0.971    H 2909 0.963    N 2900 0.955
  2909  H   0.994    C 2908 0.963
  2910  H   0.995    C 2908 0.972
  2911  H   0.997    C 2908 0.971
  2912  C   3.881    C 2915 0.977    H 2914 0.959    H 2913 0.959    N 2900 0.868    O 2918 0.060
  2913  H   0.998    C 2912 0.959
  2914  H   0.995    C 2912 0.959
  2915  C   3.958    O 2918 1.025    C 2912 0.977    H 2917 0.963    H 2916 0.963
  2916  H   0.999    C 2915 0.963
  2917  H   0.998    C 2915 0.963
  2918  O   2.037    C 2915 1.025    H 2919 0.737    O  298 0.124    C 2912 0.060
  2919  H   0.979    O 2918 0.737    O  298 0.234
  2920  C   3.918    H 2924 0.980    H 2923 0.977    H 2922 0.971    N 2921 0.944
  2921  N   3.732    C 2920 0.944    C 2929 0.922    C 2925 0.903    C 2933 0.881
  2922  H   0.993    C 2920 0.971
  2923  H   0.998    C 2920 0.977
  2924  H   0.998    C 2920 0.980
  2925  C   3.885    H 2928 0.983    H 2927 0.977    H 2926 0.973    N 2921 0.903
  2926  H   0.993    C 2925 0.973
  2927  H   0.996    C 2925 0.977
  2928  H   0.995    C 2925 0.983
  2929  C   3.891    H 2932 0.977    H 2931 0.966    H 2930 0.965    N 2921 0.922
  2930  H   0.995    C 2929 0.965
  2931  H   0.995    C 2929 0.966
  2932  H   0.995    C 2929 0.977
  2933  C   3.885    H 2935 0.970    H 2934 0.964    C 2936 0.956    N 2921 0.881    O 2939 0.067
  2934  H   0.996    C 2933 0.964
  2935  H   0.997    C 2933 0.970
  2936  C   3.960    O 2939 1.052    H 2937 0.968    H 2938 0.960    C 2933 0.956
  2937  H   1.000    C 2936 0.968
  2938  H   0.999    C 2936 0.960
  2939  O   2.148    C 2936 1.052    H 2940 0.957    C 2933 0.067
  2940  H   0.968    O 2939 0.957
 
 --------------------------------------------
          xTB calculation for sTDA...
 --------------------------------------------
 
 reading parameter file /home/karl/Software/xtb2/.param_stda2.xtb
 
      method parameters     
 k(s)        :  1.6000
 k(p)        :  2.1800
 k(d)        :  1.9500
 k(f)        :  2.0000
 k(R-V)      :  2.2750
 k(R-R)      :  1.7650
 Tscal       :  0.2580
 Gscal       :  1.0000
 fpol        :  1.0000
 Zcnf        :  0.3430
 Zqf         :  0.0000
 kcn         :  2.7000
 Ryd Hsplit  :  0.7000
 lshift(virt):  3.1000
 lshift(OS)  :  0.2000
 wllscaling  :  2.6000
 
 mowrcut     : 3.000
 
  Z AO/shell   Hii/eV     exponent
  1     Sun Feb 14 09:53:25 CET 2016    EN: 2.327 GAM: 0.473  GM3: 0.0000
     1s    -14.339618    1.220000
     2sp    -3.348946    0.600000
  6     Sun Feb 14 09:53:25 CET 2016    EN: 2.731 GAM: 0.422  GM3: 0.0000
     2s    -22.009312    1.565095
     2p    -13.020408    1.596905
     3sp    -3.914040    0.824500
  7     Sun Feb 14 09:53:25 CET 2016    EN: 3.573 GAM: 0.504  GM3: 0.0000
     2s    -25.722000    2.064844
     2p    -18.684912    1.801692
     3sp    -4.344791    0.921400
  8     Sun Feb 14 09:53:25 CET 2016    EN: 3.700 GAM: 0.587  GM3: 0.0000
     2s    -33.859000    2.418661
     2p    -22.175911    1.973969
     3sp    -4.259392    1.013700
 
 Nbf   :        18165
 T(el) :     0.0
 calculating S/T integrals ...
 cpu time for ints    137.982213000000     
 Nao   :        18165
 making H0...
 making H1...
 cpu time for H       45.0270640000000     
 solving ...
 cpu time for diag    1958.75860300000     
 
 gap (eV)           :   3.107
 Koopmans IP (eV)   :  11.134
 Eel (Eh)           : -5972.614739

          eigenvalues
 #    :        3558       3559       3560       3561       3562       3563       3564       3565
 occ. :        2.000      2.000      2.000      2.000      2.000      2.000      2.000      2.000
 eps  :       -11.647    -11.596    -11.568    -11.566    -11.541    -11.532    -11.433    -11.399
 #    :        3566       3567       3568       3569       3570       3571       3572       3573
 occ. :        2.000      2.000      2.000      2.000      2.000      0.000      0.000      0.000
 eps  :       -11.346    -11.340    -11.296    -11.179    -11.135     -8.028     -8.026     -7.995
 #    :        3574       3575       3576       3577       3578       3579       3580       3581
 occ. :        0.000      0.000      0.000      0.000      0.000      0.000      0.000      0.000
 eps  :        -7.992     -7.979     -7.951     -7.930     -7.929     -7.899     -7.898     -7.818
                            1  SCC done.
 writing mo output ...
 molden style : F
 
speedup  3.04
cpu  time for all   46 m  3.4 s
wall time for all   15 m  9.2 s
